/*--------------------------------*- C++ -*----------------------------------*\
| =========                 |                                                 |
| \\      /  F ield         | OpenFOAM: The Open Source CFD Toolbox           |
|  \\    /   O peration     | Version:  v1806                                 |
|   \\  /    A nd           | Web:      www.OpenFOAM.com                      |
|    \\/     M anipulation  |                                                 |
\*---------------------------------------------------------------------------*/
FoamFile
{
version     2.0;
format      ascii;
class       volScalarField;
location    "0";
object      nutCoeffs53;
}
// * * * * * * * * * * * * * * * * * * * * * * * * * * * * * * * * * * * * * //
dimensions      [0 0 0 0 0 0 0];

internalField   nonuniform List<scalar> 
1000
(
1.7661863927486866e-06
1.0320310559791099e-06
-2.4561546865710184e-09
-1.041605676572184e-05
-9.515130665991259e-05
-0.0003219481855097043
-0.0006842388094552772
-0.0010906580815945172
-0.001430733118463434
-0.0016860911846308362
-0.0019535916236085816
-0.0023825053369310226
-0.003014787086889344
-0.0037566482582814097
-0.004558139881587058
-0.0053906492783105005
-0.006221082282815564
-0.007014951526450871
-0.0077394663152516524
-0.008366231725783267
-0.008873151188426536
-0.009245442699562147
-0.009475715111673123
-0.009563343546569797
-0.00951325220852099
-0.009334440140982206
-0.009038486369664582
-0.008638356946372099
-0.008147616431952451
-0.007580199671797527
-0.006950681357295174
-0.0062747234391538
-0.00556957836398046
-0.004854130991310477
-0.004148340214059744
-0.0034720915373550993
-0.002843535237651388
-0.0022773804208748305
-0.0018075890404651005
-0.001506183870622069
-0.0013314333555741395
-0.0011502899928313665
-0.0008812618651961097
-0.0005537922565091793
-0.0002684405323241611
-9.080123756920902e-05
-1.6899731676913493e-05
-9.370008259177186e-07
-1.0940042007526963e-09
7.072072501881836e-10
1.0879001602332205e-05
1.2074922043861318e-05
3.5729687711692476e-06
-9.927503983562299e-09
-1.6209735865778234e-05
-0.00012720769599583418
-0.0004130906338714707
-0.0008789830661740712
-0.001436235943966776
-0.0019958676269438307
-0.002576252926894747
-0.003288232803807332
-0.004184670410670355
-0.0052083735485494356
-0.006315597235704885
-0.007468609693395334
-0.008623591514336237
-0.009734608460126352
-0.01075764087501169
-0.011654105763781645
-0.012393369790828201
-0.012954105887460944
-0.013324425529661966
-0.0135010633401152
-0.013487881672192342
-0.013294016347432304
-0.012932105550097273
-0.012416908016031156
-0.011764502401889884
-0.010992192889987035
-0.010119045250191193
-0.00916660975413955
-0.00815966780123865
-0.007126281064883734
-0.0060969499886542895
-0.005102799859177107
-0.004172976585320545
-0.003331791422759438
-0.0026109251378280515
-0.0020535543758517794
-0.0016017920098955832
-0.0011556637002666731
-0.0007089539752857407
-0.0003423781242070801
-0.00011861586294379696
-2.3641696572047228e-05
-1.2094136120318383e-06
1.4404966987833172e-08
5.384651577150214e-07
4.995601811757582e-07
2.64112001417541e-05
3.6822569218349465e-05
2.7514367770432748e-05
5.552771508189819e-06
-9.131296282927417e-09
-1.7995198232542082e-05
-0.0001427204225694335
-0.00047459167580032527
-0.0010341531381275163
-0.0017463312403896627
-0.0025384052117057958
-0.0033940240116763897
-0.004332345830703506
-0.005368561861228897
-0.0064850328597259735
-0.007645369338500716
-0.008807951947804968
-0.009929505983269877
-0.010968657443626297
-0.011888939956261023
-0.012660953689196612
-0.013263455699626605
-0.013683424052711654
-0.013915333455561828
-0.013959847172289203
-0.013822278983832138
-0.013511185682287444
-0.013037351193864273
-0.012413373964874066
-0.01165387853050974
-0.01077628408237054
-0.009801724098516089
-0.008755856265173468
-0.007668915975341322
-0.006574726150450545
-0.005508650730969362
-0.004504553713543404
-0.0035913991978576737
-0.0027836749459716256
-0.0020681484596845857
-0.0014182775630497233
-0.0008421425530190887
-0.00039797368441932225
-0.0001347771005345798
-2.6417589382838783e-05
-1.2687014283945072e-06
6.820849789608686e-08
2.2799571734938695e-06
3.6325348984920937e-06
2.2638144715957313e-06
3.8963344679907716e-05
6.297140239559196e-05
7.19001730431997e-05
4.4383157135507695e-05
9.716189568888624e-06
1.6377322600919403e-09
-1.2722732542567817e-05
-0.00012698308243742058
-0.00045332236020469006
-0.0010123413564793208
-0.0017166262431695843
-0.0024296804963192266
-0.0031101501703238352
-0.0038285507611112066
-0.004595433872556957
-0.005386752680103562
-0.00617619891475746
-0.006937304924936164
-0.007645321280015216
-0.0082786568374359
-0.008819753867575863
-0.00925542765640643
-0.009576672911946466
-0.009778195355849499
-0.009857679219815308
-0.009815097936393437
-0.009652156406090937
-0.009372063452459051
-0.008979664303647892
-0.008481947675325473
-0.007888840721629547
-0.00721399685966643
-0.006475394906317744
-0.005695336491803549
-0.004899617900945885
-0.004115869485902117
-0.0033711210033647676
-0.002689071967214702
-0.002063966651308799
-0.0014413460795938452
-0.0008515663336777774
-0.00039514803268201476
-0.00012710883865936468
-2.1779556712100775e-05
-6.132978783638102e-07
3.116484102926105e-07
4.91641491513222e-06
9.625907486544774e-06
7.875715988448082e-06
4.005368910022923e-06
3.8309989722814604e-05
7.123358126895886e-05
0.00011004621280453286
0.00011519152360246072
7.389589076453913e-05
2.286645850245315e-05
6.832396533443598e-07
-3.669102680839064e-06
-7.225339663007755e-05
-0.0002921454726201541
-0.0006483731354584592
-0.001007206719414115
-0.001298462954615771
-0.0015850825659598972
-0.0018856313576878058
-0.0021908929746091393
-0.002491780693672003
-0.0027800031147770694
-0.0030484605838427795
-0.0032913739534315583
-0.0035041905056057334
-0.003683344193460847
-0.0038259399473515717
-0.00392947557874936
-0.003991598399668059
-0.0040100296569335146
-0.003982616808900732
-0.003907575620279417
-0.0037838737393386147
-0.0036117463355402712
-0.0033932367033415764
-0.003132662686592684
-0.002836912346777746
-0.0025154223497087258
-0.0021797455787272405
-0.0018427515978204278
-0.0015174372897031735
-0.0012156038413940573
-0.0009242359129393767
-0.0005940368182890862
-0.0002812512807394306
-8.456853921385227e-05
-1.0628245423063837e-05
-1.906244085854329e-08
1.82578897515383e-06
1.0750006311276426e-05
1.8851484543368824e-05
1.719359914090477e-05
9.40343889426046e-06
3.907696921089246e-06
2.3774157275969307e-05
5.330976893691008e-05
0.00011109980661311193
0.00017113831157798603
0.00018398071321775898
0.00013710516570440037
6.242668819560486e-05
1.0316137257210932e-05
-3.433791698194863e-14
-1.0630394214342481e-05
-6.397359567658436e-05
-0.00013046287574952671
-0.0001731825056922305
-0.00020865464088415367
-0.00024398644615320514
-0.0002780479713706679
-0.0003100881334599391
-0.00033977115176728764
-0.000367118184425538
-0.0003923923268260355
-0.00041595032551907773
-0.0004380956478020308
-0.0004589505683754788
-0.00047836088229493665
-0.0004958422630596542
-0.0005105785452610865
-0.0005214737338787508
-0.0005272579427877257
-0.0005266453779976436
-0.0005185184033820717
-0.0005021178937779929
-0.00047720628578145637
-0.0004441770813101768
-0.0004040880463516908
-0.00035860903496295405
-0.0003098825349066229
-0.00026031053543266655
-0.00021228998142611507
-0.0001595397309958818
-8.565866236802924e-05
-2.245312329169725e-05
-9.46244705800748e-07
4.3844421049057716e-07
9.53070408528776e-06
2.6245513749357757e-05
3.6304681765813566e-05
3.17973758739647e-05
1.7763795113556233e-05
6.47836111219168e-06
1.9524292578328183e-06
6.868219636445504e-06
2.2366540693875095e-05
7.127259627480302e-05
0.00016321033485392628
0.00025838356668728184
0.0003027927092370268
0.00026788918279310194
0.00017114619912040338
7.207328748740026e-05
1.7679322258499004e-05
2.3114680965454466e-06
3.637559245568373e-07
2.886192317857607e-07
4.0290993235129677e-07
5.859172525448914e-07
8.570142345510642e-07
1.225821325141868e-06
1.6805130930217099e-06
2.1790451470010984e-06
2.649688087911316e-06
3.0046443796630465e-06
3.1645043444659478e-06
3.084692364726212e-06
2.7724271278191352e-06
2.2861710631161862e-06
1.7173227049166333e-06
1.1621754663903437e-06
6.957486471189277e-07
3.5691095861812586e-07
1.4760755348021045e-07
4.297095463277722e-08
5.867621257281764e-09
1.2888213436636945e-11
-1.597132125873932e-09
-1.3475053611461514e-08
-3.859685459264335e-08
-7.193157964248416e-08
-1.050009924112536e-07
-7.097058493533344e-08
1.2670019240591233e-09
1.567135313373385e-06
1.355862333678982e-05
4.002690202786658e-05
6.558738421222731e-05
7.178978184242624e-05
5.637601467260669e-05
3.083258369678264e-05
1.0312584385017996e-05
1.903679728739401e-06
2.257654230335344e-07
1.1830070371519182e-07
2.4273651648824344e-06
2.2284875242006782e-05
9.391921347917347e-05
0.00022559796214436832
0.00037933855555647366
0.0004933801526075006
0.0005147003128284506
0.0004424135942331719
0.00033656901128985305
0.0002632577520053906
0.0002582680706135735
0.0003106835874966649
0.0003848365003720634
0.000470058105485853
0.0005652324391037889
0.0006679131576504228
0.0007741873094860449
0.0008787713886724224
0.0009753815163656411
0.0010573936596660666
0.0011186892213005252
0.001154533172776228
0.001162275755036591
0.001141703885598224
0.0010949693802994923
0.0010261215238465073
0.0009404098626026672
0.0008435209552930849
0.0007409413396364744
0.0006375204634258967
0.0005372524603092887
0.0004432316497093823
0.0003576978959274353
0.00028210827729040585
0.00021721237738734866
0.000163117366005556
0.00011936881602003168
8.958372489007249e-05
8.568750056309794e-05
0.00010753210992571995
0.00013883705932707347
0.00015516839107284234
0.00013892242690047006
9.666412405718833e-05
4.968918065081424e-05
1.6125801680431097e-05
2.1133293433268357e-06
1.5991764740227988e-08
-3.599189526399114e-08
-2.0367695964174546e-06
-1.839773380866784e-07
6.893137894327375e-07
2.2432724201015337e-05
0.00011006647028978745
0.0002838247406561469
0.0005198452919863553
0.0007553364413540309
0.0009239185564812572
0.0010174907859202768
0.0011037361377267663
0.0012873179745500393
0.0015987603453870407
0.001980800586953422
0.002410653148970642
0.002881445490178207
0.003381605536152894
0.0038945730968178278
0.0043991281964658535
0.0048705360183314865
0.00528253103500557
0.005610007189650385
0.005831930238791606
0.005933963276755582
0.005910173470429364
0.005763488492880862
0.005504859121976785
0.005151432598535182
0.004724251970158694
0.004245998049209688
0.003739152338672025
0.0032246869636571585
0.0027212786372367726
0.002244785228841433
0.0018078720548139159
0.0014197089508607567
0.0010857436144039241
0.0008076993641553919
0.0005943649343758525
0.0004665583922086518
0.00039687549432227917
0.0003327783036714036
0.0002489821048730448
0.00015366864685749626
7.234262209129862e-05
2.2023444560902694e-05
2.4707961904532554e-06
-4.380958531493208e-11
-1.1772170485027883e-06
-3.5706180547083777e-06
-3.439049334696003e-05
-2.1639566823856204e-05
-3.4457061451302373e-06
6.578879408889542e-08
1.6543120719854242e-05
0.00010367316263041689
0.00030549851527716064
0.0006267977404327007
0.0010234978054957516
0.0014409373515013436
0.0018781609621695283
0.00240251693915489
0.003063159709801227
0.003839578389319908
0.004715346455650897
0.005676435455157663
0.0067001416649985265
0.007754588490919897
0.008799175912006123
0.009786363888291748
0.01066495566486816
0.011384709255303794
0.011901621993020388
0.012183018928883498
0.012211312827091874
0.011985720501969372
0.011521670560264867
0.010848275519853658
0.010004531099306579
0.009035263268023024
0.007987396604343134
0.00690688464599375
0.005836443967105259
0.004813710071390799
0.003869708515908121
0.00302765662873144
0.002302078132353401
0.001698601874292712
0.001220808648468009
0.0008702805524087518
0.0006078438103649341
0.00039107348691217727
0.00021380248033085733
8.972966884621883e-05
2.378331268750811e-05
1.9517335161257737e-06
-3.470638901212461e-08
-4.979652126527984e-06
-1.788546961443351e-05
-2.5025573912042983e-05
-0.0001501778492922128
-0.0001359614180823567
-7.293432341478623e-05
-1.5754222204549176e-05
-9.994508450388733e-08
5.3926622212606965e-06
6.620722054122417e-05
0.00025214442318961946
0.0006024332503385319
0.0011023218091274197
0.0017087681268870016
0.002391223750410665
0.0031679227545247817
0.004076154193194573
0.00512042589198235
0.006285899008958841
0.00754627132199074
0.008862985475436066
0.010185586818598852
0.011453770970590936
0.012601334915470361
0.01356195560597013
0.014275951154990139
0.01469706143537351
0.014797758328436989
0.01457211548979168
0.014035785914392248
0.013223357279465626
0.012183865667204384
0.010975573170777513
0.009660892993348661
0.008301875872284408
0.00695658132511421
0.005676081823536878
0.004501993925168698
0.0034646224321717265
0.0025818955494605663
0.001859287595567971
0.0012868662926872093
0.0008366792336725989
0.00048782892042776324
0.00023779045871672938
8.563565117988248e-05
1.7194223255679994e-05
5.113137580558873e-07
-6.786415995102607e-07
-1.3766583584827352e-05
-4.772858400437106e-05
-8.120941441214041e-05
-8.735581496836156e-05
-0.000389304182985816
-0.00041353967997149506
-0.0003278569918121041
-0.00018017035447861546
-6.192847890348682e-05
-7.669631265574165e-06
1.2640066604247072e-08
1.7297957821692647e-05
0.00012159264535979827
0.0003685044388764564
0.0007536224277575699
0.0012172838140175246
0.001740602321941994
0.002374178866559087
0.003136924288720711
0.004022952229049888
0.005015071405590898
0.006083457455353393
0.007185566949022347
0.008267815406479955
0.009269285335435898
0.01012729369601034
0.010784140598011156
0.011193892234273861
0.011327880888512188
0.011177872509492839
0.010756369835294917
0.010094292987033961
0.009236707947592987
0.008237639058117387
0.007154877942981574
0.006045266839734306
0.004960898242433546
0.0039460672116820115
0.00303500611231935
0.0022504929777965367
0.0016033669382707464
0.0010931531815903618
0.0007015892845373749
0.00039436200960413676
0.00017282561397105806
4.919302504087948e-05
5.0403961813457805e-06
-4.378234841697048e-09
-6.698161128521957e-06
-3.966711614070797e-05
-0.00010390075398986259
-0.00018085690785152038
-0.00022502851786852218
-0.0002119112105728347
-0.0007442125089136218
-0.0008654379493097588
-0.0008382227221765705
-0.0006631682581436224
-0.00043306270697442476
-0.00022303752934565538
-7.707758543312854e-05
-1.0409943272030399e-05
3.5418912205510966e-11
1.0657229066714195e-05
6.99146876905659e-05
0.00017927069991721247
0.0003264044343766092
0.0005317450548955113
0.0008116899064600822
0.0011720209568090417
0.0016113446424356334
0.0021191465480483564
0.0026748264252062044
0.003248216740553945
0.003801844283855908
0.004294857422150871
0.0046880304021546726
0.004948986309262279
0.005056526716887952
0.005003246620852533
0.004795982195092207
0.004454215310971468
0.004006943365951261
0.0034887903688881256
0.0029360760851719785
0.002383308115225467
0.0018604410519122267
0.0013909173837241703
0.0009905124341500178
0.000666974954520198
0.00042045560759988336
0.0002446731554853809
0.00012515582322006642
4.5183879936462105e-05
6.4219921919072865e-06
1.1172883717162459e-11
-5.816527635159556e-06
-4.179275594051778e-05
-0.00011881884232239891
-0.00022850420571025835
-0.000349132904563615
-0.00044355988399531336
-0.0004627274681512673
-0.000402373450310316
-0.0011477822610264643
-0.001413402231377817
-0.0015464189184751676
-0.0014932768486658747
-0.0012966855136275868
-0.001012068942794454
-0.0006921904457478931
-0.00039512898708178617
-0.0001761511266160304
-5.598841294957711e-05
-1.080408403930539e-05
-8.386720874157681e-07
5.933895836540586e-10
1.3725748054751516e-06
1.0350725309718582e-05
3.478349598281244e-05
8.176596962462958e-05
0.00015574297953780327
0.00025685608264814887
0.00038002554179543613
0.0005151241913617883
0.0006483381192011806
0.0007644644354862289
0.0008496281842240776
0.0008937556128263896
0.0008922289371923374
0.0008464160509285372
0.000763057760900901
0.0006527924441360004
0.0005282366567538041
0.00040202787211368986
0.0002851588296817531
0.00018579173153290715
0.00010861002195180992
5.4710541166036235e-05
2.198347877569292e-05
5.898164553737153e-06
5.786877774482499e-07
-3.1644827371040858e-09
-2.257620315998164e-06
-2.0280279364515796e-05
-7.630919388643056e-05
-0.00018461288868589973
-0.000336625164292873
-0.0005055292554400717
-0.0006618357547561331
-0.0007775848235090381
-0.000821436275189375
-0.0007650550793189147
-0.000631375308456744
-0.0014950295242180027
-0.0019120945016165595
-0.002265641481619559
-0.0024764547046441094
-0.0025283425398398072
-0.002422141307870863
-0.0021654372193321537
-0.001789500743323002
-0.0013647856096455264
-0.0009773974134236049
-0.0006846411412201255
-0.0004978456199009801
-0.00037124380888863234
-0.00026289487871532246
-0.0001712721884593566
-0.00010079159014747904
-5.208437330119154e-05
-2.252989006791752e-05
-7.438096604178838e-06
-1.500659317050377e-06
-7.81052217272775e-08
5.7921164417395376e-09
2.879606488926776e-07
1.01263519848529e-06
1.7531901988053388e-06
2.0242424360156233e-06
1.668846200940287e-06
9.340768848692087e-07
2.751598434945568e-07
1.0416814878151623e-08
-2.7932721537051926e-08
-7.262483668748803e-07
-3.731995578450308e-06
-1.1283248086567584e-05
-2.5843769300946815e-05
-4.959525856445029e-05
-8.386813470831611e-05
-0.0001286176928199587
-0.00018600369421648778
-0.0002754607146628816
-0.00042007599267007543
-0.0006181232979022953
-0.0008445112930005241
-0.0010571073147083638
-0.001217787981873381
-0.0013056327850766347
-0.0013110210710955998
-0.0012274962159173738
-0.001057528101612136
-0.0008417347793487374
-0.0016880757339186947
-0.0022138749513151627
-0.0027657860365810126
-0.003276242743456686
-0.0036985766406439978
-0.0039917923809863415
-0.004114437266852984
-0.004041432892605878
-0.0037939187270704536
-0.0034454024033176685
-0.003089948168945684
-0.002801949213527972
-0.00255158822496317
-0.0022724579836708894
-0.0019683028317121027
-0.0016617087893878138
-0.0013717394902729736
-0.0011121348986914985
-0.0008907388704501191
-0.0007100201145408055
-0.0005683506678946801
-0.00046156468069894917
-0.00038442895324835886
-0.00033176894244662863
-0.0002991794682897037
-0.00028336030106646757
-0.00028217703301189985
-0.00029455040198421125
-0.0003202448799584294
-0.0003596013598034033
-0.0004132254142960396
-0.0004816435458003685
-0.0005649322050634395
-0.0006623382769897783
-0.0007719213154925195
-0.0008902560565806929
-0.0010122642043167915
-0.0011312459549855643
-0.0012487270816166356
-0.0013986503732228495
-0.0015963713969638848
-0.0018056158384337098
-0.001977387479520961
-0.002068747871046293
-0.0020604766114112813
-0.0019572324390066927
-0.0017743877280324795
-0.0015298672578218425
-0.001247720127763247
-0.0009678050318988066
-0.001678636809828498
-0.0022368595654345836
-0.0028906924134892193
-0.0036037802204361056
-0.004331932812124736
-0.005025891894866326
-0.005627700499376303
-0.006080102337352632
-0.0063494907147778
-0.006445101604293384
-0.006415334660033582
-0.00632333535785113
-0.00616346167792173
-0.005892025463458322
-0.005521783669437401
-0.005086302926571957
-0.004619563853524098
-0.004152176228900654
-0.0037088218640494767
-0.0033071252483103577
-0.0029578003375499663
-0.0026656963504695283
-0.002431287530879822
-0.0022522006470619828
-0.0021245283088976146
-0.002043770278472188
-0.0020054090902968157
-0.0020051451165377493
-0.002038893726485424
-0.002102606223814256
-0.00219201186818981
-0.0023023264408557945
-0.0024279842270226574
-0.002562417365032279
-0.002697927026073888
-0.0028256843799212444
-0.0029358982257437355
-0.0030182166818852525
-0.00307114441807115
-0.0031200614054216623
-0.003165844218564359
-0.0031686513317718264
-0.003093142469218703
-0.0029228720579506213
-0.0026652107208661687
-0.0023434852216931263
-0.001985590062201558
-0.0016187679286402315
-0.0012709411242741201
-0.0009675461250407335
-0.0014849304977856749
-0.0019965126619238887
-0.0026296674224359825
-0.0033752242604834694
-0.00420609754378489
-0.00508629731532701
-0.005969206692408808
-0.006800045663209388
-0.007523916292620068
-0.008098245843999662
-0.008502662614794012
-0.008740004575262132
-0.008812690116383016
-0.0087186944832909
-0.00847661457420085
-0.00811790507564852
-0.007678511440960873
-0.007194564773892657
-0.006698900552361643
-0.0062187463887783834
-0.005774689755738842
-0.005380686592819428
-0.005044829543271471
-0.004770462053651675
-0.004557380084905342
-0.004402859065242618
-0.004302453102462359
-0.004250512053506104
-0.0042404665996831035
-0.004264955055996938
-0.004315843849583181
-0.004384244873897741
-0.004460541012920555
-0.004534476767300386
-0.0045953231383957585
-0.004632145191725143
-0.004634200112768205
-0.00459150044350548
-0.004498330042622478
-0.004357504551212395
-0.004162704075709988
-0.0039003048922504886
-0.0035673726696807046
-0.0031746128151048116
-0.0027432649642242105
-0.002298846020018189
-0.0018663845080501733
-0.0014683774212745672
-0.001124616973719551
-0.0008446172384150555
-0.0011766562093579354
-0.001587284024857506
-0.002104692185016613
-0.0027315155898134237
-0.0034550819864273353
-0.004254661973887621
-0.0051010854827772
-0.00595650796522247
-0.006774271908337313
-0.0075025244426528545
-0.008093193243425674
-0.0085125681654211
-0.008757465342643801
-0.008842527985033303
-0.008782278388408596
-0.00859731510818989
-0.008314299984751222
-0.00796265303151845
-0.007571533278263511
-0.007167447540970536
-0.006772699122504653
-0.00640464363549162
-0.006075604103025543
-0.005793244007943654
-0.005561197363545343
-0.005379744901896081
-0.005246455650167102
-0.00515669397995115
-0.00510402220935676
-0.0050805263438644145
-0.005077089650026492
-0.005083698822807204
-0.005089777695292
-0.005084581626429294
-0.0050576235757558334
-0.004999133748521084
-0.004900547403119306
-0.00475503043993967
-0.004556693569240293
-0.004297181544196911
-0.003973095806290912
-0.003593132080788393
-0.0031732069559902384
-0.0027332792320889595
-0.0022935627962148487
-0.0018724198027057798
-0.0014859456412491744
-0.0011474709033728228
-0.0008668836325322115
-0.0006447766726666408
-0.0008400636752467312
-0.0011315712744720916
-0.0014941369176557139
-0.00192992398051896
-0.0024330778099252237
-0.0029918691653928312
-0.0035888038078616628
-0.004200936155881914
-0.004799954856751069
-0.005353689221685821
-0.005830178647911655
-0.006203254385285144
-0.006463653733147412
-0.006614703228501096
-0.006661086699143873
-0.006612126769533629
-0.006482190279410077
-0.006288920679017961
-0.006051401439246985
-0.005788529819454272
-0.005517659500361102
-0.005253664945390275
-0.0050083746007133206
-0.004790350379042516
-0.004604929994747612
-0.004454441347839278
-0.004338502294640188
-0.004254338662913332
-0.004197126327449208
-0.004160321772339028
-0.004136052392996484
-0.004115555538186639
-0.004089694477087472
-0.004049523443715558
-0.003986856613533713
-0.003894791815834088
-0.0037681526688138657
-0.003603839587554303
-0.0034000884764771246
-0.003154452370561366
-0.002869569306307401
-0.002555797479155639
-0.0022262338058358605
-0.0018946365980363493
-0.0015737023622271243
-0.001274329099383495
-0.0010054231441512932
-0.0007734577862134797
-0.0005820123876273338
-0.0004299934954523474
)
;

boundaryField
{
    "(inlet|outlet)"
    {
        type            zeroGradient;
    }
        "(front|back)"
        {
            type            empty;
        }
    "(top|hills)"
    {
     	type            zeroGradient;
    }
}

