/*--------------------------------*- C++ -*----------------------------------*\
| =========                 |                                                 |
| \\      /  F ield         | OpenFOAM: The Open Source CFD Toolbox           |
|  \\    /   O peration     | Version:  v1806                                 |
|   \\  /    A nd           | Web:      www.OpenFOAM.com                      |
|    \\/     M anipulation  |                                                 |
\*---------------------------------------------------------------------------*/
FoamFile
{
version     2.0;
format      ascii;
class       volScalarField;
location    "0";
object      nutCoeffs48;
}
// * * * * * * * * * * * * * * * * * * * * * * * * * * * * * * * * * * * * * //
dimensions      [0 0 0 0 0 0 0];

internalField   nonuniform List<scalar> 
1000
(
0.0010307778144559069
0.0007790745321781478
0.00035846696650280796
7.015067449445527e-05
1.6260448237850982e-06
-1.1590658052480854e-06
-1.061046051450617e-05
-1.0359316392898482e-05
-1.839897094209744e-06
6.543834592221257e-09
4.165531625877239e-06
2.203832811637647e-05
5.815376112654689e-05
0.00012830869025061377
0.00025659742609930434
0.00047157389910085093
0.0008039671035829472
0.0012800975716707492
0.0019131050366146538
0.0026939705372251137
0.003585147538864701
0.00451967009729563
0.005407356221519375
0.006148032489016841
0.00664914800626338
0.0068437926749413125
0.006704525480921814
0.006249230269344346
0.0055374986831562565
0.00465842443105791
0.003713154434901313
0.0027965657437357067
0.001982678710376262
0.0013164362700253973
0.0008128271936575901
0.00046209948793255763
0.00023842201717073222
0.00010921937956402084
4.080665246680752e-05
7.700873699931457e-06
1.8950265559817494e-08
-3.0687169858006325e-06
-2.047566498809158e-05
-2.8932125228727067e-05
-1.0166204647576778e-05
-1.2622471094929183e-10
2.5532653031349328e-05
0.00022418829292817982
0.0005716911792058795
0.0007900356431621516
0.0014549507368002861
0.0012134390189908935
0.0007274489113030942
0.0002488341344113765
3.187564073488723e-05
3.005531011420975e-08
-5.7653370407008564e-06
-2.267822965754727e-05
-2.11103524811619e-05
-6.996203274734824e-06
-4.760972710127457e-07
8.203998988615377e-09
1.1027761903467432e-06
7.724709594983934e-06
2.965774594951742e-05
8.324837588965512e-05
0.00019072736258163295
0.00037654134178020997
0.0006606747506629668
0.001050295964381466
0.0015322791464942353
0.002069627832127324
0.002604019159355121
0.003065081076831246
0.003384524174965247
0.0035115349767316974
0.0034249850458353357
0.0031386913135627355
0.002698096820081159
0.002169355722123777
0.0016241811249355592
0.0011248645145031785
0.0007136956903318222
0.00040881163125447445
0.00020660801200975235
8.862806399366493e-05
3.000978654945303e-05
6.8155112888607656e-06
4.648569261783573e-07
-1.384927083304154e-07
-7.79820788776421e-06
-3.235982220251948e-05
-4.645139119805959e-05
-2.257194181828098e-05
-6.321239903731901e-07
8.261028668587821e-06
0.0001477951939212471
0.0005457699828801228
0.0009838439408464122
0.0011979265490140024
0.0017038730483321823
0.0015311646290328712
0.0011306708612515792
0.0005723637031289394
0.00015966801960832429
1.2535478969936275e-05
-1.1196122546048331e-07
-1.652249654858557e-05
-4.659565444406734e-05
-5.1079326560271395e-05
-3.550929108195794e-05
-2.2560968894746773e-05
-1.4651004734030668e-05
-7.175702103077236e-06
-1.7552055899534544e-06
-2.6226597048330976e-08
4.5300034720152267e-07
7.3808057942574575e-06
3.242333424803934e-05
8.729012894810026e-05
0.00017833971280167927
0.0003018819067198913
0.0004424407448909733
0.0005753061490875178
0.0006729766394199747
0.0007134298588742465
0.0006871953305613645
0.0006004868949076733
0.00047314782085248856
0.0003321983968030897
0.00020352398955915984
0.00010482090153146023
4.222342614592341e-05
1.127655838664645e-05
1.1633020686476643e-06
-6.557430826106416e-11
-9.781332999806412e-07
-5.590968238567229e-06
-1.4592910277678655e-05
-3.371341015559991e-05
-6.454986049446048e-05
-7.674089685518502e-05
-4.210033419316092e-05
-3.820208176588971e-06
1.9309213378389004e-06
8.972245133705869e-05
0.0004292288992504174
0.0009450983763279727
0.0013204897626410634
0.00146576017610068
0.0016466155299002475
0.0015630064099583147
0.0013704849701059434
0.0009406074863103875
0.00042883610786716966
0.00010087939867812714
3.970913424674148e-06
-1.7743988416204733e-06
-3.621346885463712e-05
-9.323219028864082e-05
-0.00013079364790161786
-0.0001526618953048131
-0.00017059900773827436
-0.00017283397201649144
-0.00015472657354102128
-0.00012135593199051785
-8.184908774051107e-05
-4.5817043335025826e-05
-1.985519774116252e-05
-5.689677122966783e-06
-6.55963171164451e-07
-4.9903619999529485e-12
3.6657342706156296e-07
2.1092876317237536e-06
4.4666933119506386e-06
5.694274627775243e-06
4.83239233478221e-06
2.565597581100644e-06
5.995440120097889e-07
3.3468329768137157e-09
-2.936467817779543e-07
-3.6865079918662628e-06
-1.4394844931801084e-05
-3.4989148479675e-05
-6.43302645906386e-05
-9.715516175283903e-05
-0.00012566731459876353
-0.0001424173026606147
-0.00014737791972090994
-0.00014999045414847617
-0.00013171174966680534
-7.026709327422624e-05
-1.0275448110557198e-05
2.3949133023843225e-07
5.53419508612488e-05
0.00032460465122555215
0.0008027632138168107
0.0012228828640784863
0.0013981688091638457
0.0014512333867805279
0.0012912388124194309
0.001268912780758039
0.001287112456123291
0.0011390501688561606
0.0007460101563356947
0.0003173994417516215
6.359655460001348e-05
8.977895178850316e-07
-5.940662864381059e-06
-6.301616917123952e-05
-0.00016364904359855712
-0.00027280700129323675
-0.000381860848796294
-0.0004756509235101536
-0.0005351663976080008
-0.0005503767740636736
-0.000521966865485619
-0.00045997585068474926
-0.00037962140348475864
-0.00029630513661114364
-0.00022174640629390958
-0.00016232026288371358
-0.00011954926824673706
-9.187627517460688e-05
-7.667950230749767e-05
-7.180303205583595e-05
-7.638546808176548e-05
-9.107307820831163e-05
-0.00011768600617464827
-0.0001582746125372995
-0.00021353356173021702
-0.0002809131960702851
-0.00035324499453483617
-0.0004189061482143394
-0.0004641102805343946
-0.0004768964852299527
-0.0004513913068247546
-0.0003904552695845589
-0.00030690067188222307
-0.00021124462795925203
-0.00010203688525882535
-1.8053591100383092e-05
4.192101928336269e-09
3.605455842981707e-05
0.0002495309117585842
0.0006570967085705034
0.0010493766930383622
0.0011949322619887795
0.0011586634843597662
0.0011507673550688578
0.0007957963149752494
0.000788816472521388
0.0009064000140084318
0.0010058082836943603
0.0008864914044468076
0.0005667849485868434
0.00023157660435610037
4.081081028437554e-05
1.6724293783172245e-07
-9.383029224251342e-06
-7.676623583814936e-05
-0.00019724928384241077
-0.0003428567865640668
-0.0004976253230274867
-0.0006373968813329171
-0.000738539831733757
-0.0007876266067688162
-0.0007838592862904539
-0.0007371857205240132
-0.0006636450337268692
-0.0005801910721826647
-0.0005008251535805835
-0.000434894169415552
-0.00038732767611536863
-0.0003599973910300205
-0.00035327220543231294
-0.0003670836960912997
-0.00040116240973944587
-0.00045437170204060763
-0.0005233297821013907
-0.0006008603779489534
-0.0006751607191888048
-0.0007306524550931905
-0.0007510554681981039
-0.0007241911776959409
-0.0006468737271874069
-0.0005276622873183462
-0.0003857385723283074
-0.00024225551469774686
-0.00010988811425910054
-2.0206301245819518e-05
-8.035108407141888e-11
2.594085457761237e-05
0.00019602362954477002
0.0005265474627660059
0.0008527104060782582
0.0009728263172216841
0.000863574165545327
0.0007289627514950437
0.0007118313479999418
0.00036416440371572507
0.0003482435440243019
0.00044347148136903174
0.0006113835128794128
0.0007052798721864945
0.0006245031840447827
0.000401906967755949
0.00016432458199927455
2.8573921557318845e-05
1.207087747436003e-07
-5.937547732718418e-06
-4.638114762900069e-05
-0.00011901324786183874
-0.0002128813103160664
-0.000311077457216289
-0.00039328409485833363
-0.00044488749975554905
-0.00046074342143062147
-0.000444898931448987
-0.000407378642781227
-0.0003600208492676972
-0.0003131266859085076
-0.0002738188905700716
-0.0002460229176362496
-0.00023140633107642997
-0.00023049543016608203
-0.00024340015377594674
-0.0002698642331868282
-0.0003086039804238999
-0.00035615794100172756
-0.0004057927714345202
-0.00044730309071130514
-0.00046847467443793706
-0.0004584256128561773
-0.00041194626099922885
-0.00033298862030221323
-0.00023522289006670084
-0.00013852203084669813
-5.9604980798702475e-05
-1.0082876804975728e-05
4.983146071259529e-09
2.2645508812241815e-05
0.00015571249341997457
0.00040425680718992934
0.0006401304201498757
0.0007210891890269706
0.0006145395689664107
0.0004324044799222075
0.00032525012766008933
0.0003261727463388342
0.00011123913604165371
9.262096762324016e-05
0.00012572716559593474
0.00021950516989912382
0.0003359065896886094
0.0004033370488669379
0.0003723466803404373
0.0002518836265654821
0.00011029157649141079
2.3531670209802544e-05
7.519084281188923e-07
-3.409761332147232e-07
-6.742757375752785e-06
-2.19218507193254e-05
-4.121534625069069e-05
-5.720953901043182e-05
-6.450303124462531e-05
-6.193098178183739e-05
-5.2075245712362e-05
-3.917682023940487e-05
-2.6983700277065128e-05
-1.758670119282599e-05
-1.1424620600604351e-05
-7.97873089347419e-06
-6.536430776690046e-06
-6.674974266934638e-06
-8.452454522911194e-06
-1.2405335405933381e-05
-1.9332790623868566e-05
-2.975032680917701e-05
-4.305397693431807e-05
-5.6818909650490286e-05
-6.691581500062321e-05
-6.89019900543634e-05
-6.036061786225354e-05
-4.295622820937305e-05
-2.2620439386116474e-05
-6.95201337042988e-06
-3.6696287567635533e-07
7.627137040188739e-07
2.533932307551704e-05
0.0001222512623573009
0.0002832765774214687
0.0004190522783243614
0.000448647027137518
0.0003656613380022836
0.0002318169963418783
0.00012719698662881087
8.823698123467061e-05
0.0001001237804593696
1.801087211067402e-05
9.162473836859713e-06
1.1357642174341393e-05
2.8450770424767944e-05
6.622948546087871e-05
0.00011673669189396846
0.00015735807973011045
0.0001623966422440877
0.00012213631323500104
6.231230315233284e-05
2.0159758346674737e-05
4.010316529914415e-06
4.3221572476568463e-07
8.31689186574042e-09
-5.891006723369293e-10
-1.3226523200287091e-09
1.0101302843437747e-09
1.2981298058100127e-07
1.1765039775908082e-06
4.805485433342404e-06
1.2769734492372658e-05
2.5466735834544304e-05
4.087359775095809e-05
5.4811209916097316e-05
6.264625293691938e-05
6.154499153921183e-05
5.193549431984177e-05
3.727558392089349e-05
2.2272454134116725e-05
1.0654361371056602e-05
3.8012289765109957e-06
8.800174740518507e-07
9.532701141249721e-08
1.482365691783174e-09
-1.1584768569740003e-11
5.148472715640632e-10
8.441134819041667e-08
1.1602840370540072e-06
7.140784282937216e-06
2.9883776274462247e-05
8.547763166972623e-05
0.00016218297886813943
0.00021209674199217755
0.00020247837331718055
0.00014734066803553312
8.162051691569584e-05
3.405605236008238e-05
1.289526082449927e-05
9.32843005438873e-06
1.6574421705147803e-05
7.7573298001689e-07
2.3662860116323714e-09
-6.167617398371806e-09
8.817277582075738e-10
3.9804614043797635e-07
3.4017401168693356e-06
1.1538811273639313e-05
2.378966176636447e-05
3.233476997915876e-05
2.9291574606432434e-05
1.850231393744824e-05
9.376733023461378e-06
5.221880073505679e-06
4.399568004705093e-06
6.120218513127453e-06
1.1974152803590343e-05
2.638477816113684e-05
5.679236992481213e-05
0.00011219571602896434
0.00019943175017873233
0.00031826280652183595
0.00045772710724836243
0.0005962763855030676
0.0007067203223169103
0.0007645640415916181
0.000756411899576355
0.0006847164852729803
0.0005667418652441066
0.00042826906422510836
0.0002949507924696091
0.0001850468178388505
0.00010618079747080328
5.657843024569973e-05
2.9118185496138704e-05
1.5717220748985147e-05
1.0183053944440834e-05
9.136808973660333e-06
1.1879557150673703e-05
2.0216867444109457e-05
3.6233864181188594e-05
5.3925340255452194e-05
5.847724458983953e-05
4.399822360182788e-05
2.2728446795549383e-05
7.637447735291557e-06
1.2837951974962755e-06
4.0643901750656706e-08
-9.736287567116444e-12
1.05306933879141e-08
8.059079603496816e-07
-1.786728832471469e-11
-1.0782055473998874e-06
-6.264878086037459e-06
-1.1461129484880418e-05
-1.182041011357013e-05
-8.113890845635446e-06
-3.4785228203719157e-06
-6.629707391498269e-07
-1.3615378493663684e-08
7.883669274243722e-09
4.893874099057489e-08
3.946470287388905e-08
5.762276024865622e-08
3.680965336809054e-07
2.5016771056836974e-06
1.1808929263190032e-05
4.018133860671236e-05
0.0001061401912062735
0.0002301252837091241
0.0004254042626273437
0.0006880569868527356
0.000991127612222502
0.0012870329639136438
0.0015189538366212586
0.0016376422605829408
0.0016172404332186472
0.0014636674756492005
0.0012122007300409171
0.0009154323058688803
0.000626746661820359
0.0003858501483790201
0.00021133928641633878
0.00010171601235593244
4.2554468131777056e-05
1.5509475346044942e-05
5.174717039148595e-06
1.8878788491147166e-06
1.0953226499233851e-06
1.2494291385326218e-06
1.5411084886058668e-06
9.981015773871111e-07
1.4822657442250423e-07
-5.390036807878567e-09
-7.725428641674853e-07
-3.5347669291224304e-06
-6.863839885580276e-06
-7.661439165467843e-06
-4.389766236403109e-06
-6.971824490334108e-07
1.0903427496856645e-10
-2.4648521930051596e-10
-1.6622768992901834e-06
-1.4153844668341669e-05
-4.320029217717258e-05
-7.998940833800368e-05
-0.00010999750863998935
-0.00012078064720259041
-0.00010849423587129305
-8.306079794311102e-05
-5.918024951596515e-05
-4.3622835699867465e-05
-3.519778070980534e-05
-2.605299281832235e-05
-1.295396758776271e-05
-2.7514997488098166e-06
-4.412833159189519e-09
2.2082324462631978e-06
2.4909074366535697e-05
9.750456183363255e-05
0.00024475100741004255
0.0004718459944726467
0.0007550884705665513
0.0010437699792458276
0.0012740484370732622
0.0013898705954621163
0.0013624591097260849
0.0012002440997672212
0.0009452252449701374
0.0006576273451432651
0.00039552586510470703
0.0001977457945689614
7.615850963373175e-05
1.8967121864464483e-05
1.7052302694831235e-06
-1.0610563407011767e-09
-1.5637527105297496e-06
-7.252171009638906e-06
-1.3824352763962252e-05
-1.7500367828403087e-05
-2.132223685067618e-05
-3.0924127354782316e-05
-4.8315365604153344e-05
-6.994513799750364e-05
-8.428405878474334e-05
-8.110466524028319e-05
-6.1000314481328896e-05
-3.323392771901879e-05
-1.0515915476525215e-05
-1.0467040716039643e-06
1.1959082021467915e-10
5.351155187444597e-07
-3.0474994599106706e-08
-5.726118295605386e-06
-3.87748598299236e-05
-0.00011484371797498175
-0.00022768992374396735
-0.00035024261606315737
-0.00044455720956711105
-0.00048559788731076213
-0.0004788959877572669
-0.0004478675921235033
-0.00041057957619877126
-0.00035177488981893095
-0.0002571846292788475
-0.00015036634972330539
-6.302605371726051e-05
-1.4012598352696286e-05
-3.3269758746876073e-07
1.2657662164799914e-06
2.231917402439453e-05
8.589259772635623e-05
0.00019338328775737946
0.0003216581477623288
0.00043220592185396194
0.00048797892781199495
0.00046983838408670535
0.00038482428914934376
0.0002625625161933496
0.00014184052036941765
5.390530916014893e-05
1.024283955534742e-05
1.1501161871699828e-07
-1.6761967239647295e-06
-2.1098040801547247e-05
-7.200959812233487e-05
-0.0001499646862658878
-0.00023497804136492803
-0.0003011849132130551
-0.00033427718765794264
-0.0003537555674750296
-0.0003757756607268425
-0.00038426995029613607
-0.00035642270199356827
-0.0002835795346973594
-0.00018466520362330085
-9.197880609327025e-05
-2.9704661871580332e-05
-3.758082417452849e-06
-2.1893544789272847e-09
8.344521233029432e-07
1.4775112297739562e-05
3.0623283864997615e-06
-1.2165250551416713e-10
-6.574627368231617e-06
-5.305717649005218e-05
-0.00017144714352147964
-0.00036819185396068534
-0.0006145830737450037
-0.00085418306105212
-0.0010332383699576033
-0.0011272356587291874
-0.0011387797151030262
-0.001061173777906873
-0.0008893061236104186
-0.0006579633241441194
-0.000419630293629096
-0.00022105127620522427
-8.843956830539679e-05
-2.202027234491082e-05
-1.6577033006140823e-06
2.9664427055295575e-08
4.022009718178905e-06
1.7284825959144062e-05
3.399540162864892e-05
4.349065891205975e-05
3.944748208361038e-05
2.46783944908265e-05
8.866502641406781e-06
8.034641541435375e-07
-8.646323325951722e-08
-7.612406620643196e-06
-4.509598597570591e-05
-0.00013508449295129634
-0.0002871084557709434
-0.0004894424782817888
-0.0007092069726055087
-0.000901388978544511
-0.001023247760777521
-0.0010540623567376897
-0.0010118776202331034
-0.0009092138082455205
-0.000741772049381722
-0.0005272724476219283
-0.00031052449266925013
-0.00014024495482094896
-4.063012367388357e-05
-4.062704561322128e-06
6.2002833375584495e-09
4.384050300205263e-06
1.728591742599263e-05
9.751826768498786e-05
5.613423407785185e-05
1.5827956698223432e-05
4.421780059905622e-07
-1.66707708335188e-06
-3.244468786528105e-05
-0.00013678914550603743
-0.00033968265689423655
-0.0006250776419536392
-0.0009320327569141637
-0.0011817218311706706
-0.0013149706871537937
-0.0013182392433268332
-0.0012054925191371413
-0.0010037107195030252
-0.000755686914441915
-0.0005090028938542655
-0.00030184646336482235
-0.0001538447109790001
-6.49287945778996e-05
-2.1358716740036446e-05
-4.9275553465428825e-06
-6.514504923892884e-07
-3.303707973262729e-08
-8.80009493410157e-10
-8.45393941019766e-09
-2.5717076363656393e-07
-2.538943801605956e-06
-1.2857939863293386e-05
-4.3282816681683716e-05
-0.00011045261960485167
-0.00022989227880291724
-0.0004078348067374686
-0.0006342282777790267
-0.0008807650996370187
-0.0011059318016007973
-0.0012659712724211389
-0.001327867733565803
-0.0012771085031300022
-0.001112050949743224
-0.0008530567983438381
-0.0005563962731576738
-0.00029202808285158443
-0.0001112613175184354
-2.3398089182204074e-05
-6.839420606759895e-07
1.1005803065652046e-06
2.0533816038477536e-05
6.423840928582164e-05
0.00010529677336698566
0.0003331264081527488
0.0002686669284172211
0.00016396438346518198
6.648140593595885e-05
1.3130706066525884e-05
1.3296544879825003e-07
-2.853903660168332e-06
-3.740404950100182e-05
-0.00013639023483844997
-0.00029864267993032125
-0.00047999150714825924
-0.0006171258271780265
-0.0006823216011613025
-0.0006820379613356369
-0.0006225817640962773
-0.0005188579017550488
-0.0003940445966829843
-0.0002719051656541491
-0.0001699822214802479
-9.621842526005556e-05
-4.9663776539688145e-05
-2.3991567376300806e-05
-1.1591439767919559e-05
-6.3906082582174515e-06
-4.823278112103619e-06
-5.596747645479204e-06
-9.350016427074826e-06
-1.8820457768025667e-05
-3.919774048375306e-05
-7.768575389160298e-05
-0.00014144090075130685
-0.0002339966217259541
-0.00035148891343672855
-0.0004806829237454212
-0.0006004286632845388
-0.0006867585259301606
-0.0007200715808028162
-0.0006916412391685596
-0.0006017838650834416
-0.0004500561522997682
-0.0002675964639247439
-0.00011454844030820667
-2.766649716625054e-05
-1.2926769406855183e-06
5.744425217917833e-07
1.87439284225828e-05
8.009898445035385e-05
0.00018353471059620997
0.00028784947085983714
0.00034567678206432953
0.0007552929911395212
0.000714748368986539
0.000587463135127619
0.00040958068566281796
0.0002385520555034011
0.00010889455977267669
3.2711092330395166e-05
3.5851419100034974e-06
-2.119102236832353e-09
-4.427690256350153e-06
-2.3686618375401872e-05
-5.147804439763133e-05
-7.612334756528629e-05
-9.302652744124504e-05
-9.864412298354606e-05
-9.207868142693667e-05
-7.617547970343455e-05
-5.597028384721282e-05
-3.65085389724208e-05
-2.113552409573289e-05
-1.0917517867002115e-05
-5.148879735618949e-06
-2.367371760947867e-06
-1.2253789529457206e-06
-8.875548188429791e-07
-1.0450916929447396e-06
-1.848298271861051e-06
-3.950973656448646e-06
-8.572457572259508e-06
-1.7283765754761338e-05
-3.1309966314890126e-05
-5.0497905567820466e-05
-7.24849695992628e-05
-9.272273032396576e-05
-0.00010568354959292545
-0.00010693807792259744
-9.51897721781225e-05
-7.320083615327381e-05
-4.595251869810129e-05
-1.883658875232524e-05
-2.586313298779909e-06
5.8764059811506974e-09
6.422654772109102e-06
4.384499709161214e-05
0.00013148168092424453
0.0002717021785278051
0.0004480508127973015
0.0006226066458334823
0.0007375020724718251
0.0007606556169596144
0.0012733755033060273
0.0013163269778266587
0.0012584716647928897
0.0011068618954302592
0.0008993873446810446
0.0006721575994151405
0.00045558751546343466
0.0002740749849527981
0.0001430606607208442
6.386755077335038e-05
2.4562794946180188e-05
8.584603885081217e-06
2.744612621819868e-06
7.288683130999231e-07
1.5825630794861103e-07
3.452734741651997e-08
1.4948134507439114e-08
2.3329539768663437e-08
7.34275665458693e-08
2.3246978405450218e-07
5.948292685600372e-07
1.2055300476641854e-06
1.9767104225457403e-06
2.680051646073951e-06
3.0474377616659685e-06
2.92227986785814e-06
2.355579493573597e-06
1.575949416960086e-06
8.546533669992474e-07
3.626814009973535e-07
1.1597477940139271e-07
2.86935634220155e-08
8.163774766106942e-09
8.278929128574425e-09
3.644111588250185e-08
2.1927146140863136e-07
1.0631301335541518e-06
3.926521119292328e-06
1.1799362340794142e-05
3.2127128473941595e-05
7.950508622591712e-05
0.0001707063212555526
0.00031582112511246285
0.0005099153867055277
0.0007335452519126348
0.0009591783805637467
0.0011547556639060928
0.0012846856196666616
0.001314915957351638
0.001244304169173557
0.0016968460464863357
0.0018479176782690244
0.0019206065909897346
0.0019016567106092605
0.001797736023918289
0.001623436699194181
0.0013989328388514515
0.0011492398615748156
0.000902160394824764
0.0006824652185310523
0.0005052879832842277
0.0003738663812058488
0.00027870516228497677
0.0002090372438179967
0.00015938300671216265
0.00012532091374897343
0.0001028808529133048
8.887440128074372e-05
8.090786232473908e-05
7.722125677897331e-05
7.647805713238165e-05
7.758350294607524e-05
7.958135173755844e-05
8.163963131479866e-05
8.311240210837401e-05
8.363183604263539e-05
8.317970435597045e-05
8.209959423979184e-05
8.10442732285591e-05
8.089526531531786e-05
8.270500058176988e-05
8.771202351245029e-05
9.744791693085579e-05
0.00011392347959589306
0.0001398367258750074
0.00017870527086717697
0.00023478350242887207
0.0003126079927803429
0.00041755736527732465
0.0005601792316300845
0.0007487924129831293
0.0009775482630950787
0.0012282200190282693
0.0014734465610043675
0.0016840674538487746
0.001835125613777223
0.0019079288923397686
0.0018910132406665156
0.0017827093642032042
0.001601080663107168
0.001852078454381906
0.002079982766940338
0.002259948012086964
0.0023739244457944594
0.00241118108005366
0.002369130645016463
0.0022535178589561003
0.0020776686111585153
0.0018606444875242652
0.001624136771073352
0.0013886197011105154
0.0011700432194546898
0.0009766313106967007
0.0008112311876868237
0.0006747258326856319
0.000565708859202757
0.0004811395597246378
0.0004172916722502978
0.0003704147998658981
0.00033710257537086823
0.00031444850863657464
0.00030006636844604574
0.00029205626375432465
0.00028896381650003197
0.000289763003372177
0.0002938660763150213
0.0003011488789756225
0.00031198318056497844
0.0003272613725022192
0.00034841466615161967
0.00037742412985205474
0.000416829749318488
0.0004697120703620712
0.0005396082793058531
0.0006302903562985493
0.0007453211605486646
0.0008873339378875274
0.0010570394882069023
0.0012525902296588803
0.001469914181781312
0.001699273224930376
0.0019233544598739245
0.002120981012720442
0.002270680912855968
0.0023545105281883314
0.0023609805098079935
0.0022867595615745366
0.0021373209707263815
0.0019266062716082088
0.0016752529700515895
)
;

boundaryField
{
    "(inlet|outlet)"
    {
        type            zeroGradient;
    }
        "(front|back)"
        {
            type            empty;
        }
    "(top|hills)"
    {
     	type            zeroGradient;
    }
}

