/*--------------------------------*- C++ -*----------------------------------*\
| =========                 |                                                 |
| \\      /  F ield         | OpenFOAM: The Open Source CFD Toolbox           |
|  \\    /   O peration     | Version:  v1806                                 |
|   \\  /    A nd           | Web:      www.OpenFOAM.com                      |
|    \\/     M anipulation  |                                                 |
\*---------------------------------------------------------------------------*/
FoamFile
{
version     2.0;
format      ascii;
class       volScalarField;
location    "0";
object      nutCoeffs31;
}
// * * * * * * * * * * * * * * * * * * * * * * * * * * * * * * * * * * * * * //
dimensions      [0 0 0 0 0 0 0];

internalField   nonuniform List<scalar> 
1000
(
0.0021140493330426943
0.0019329831837195672
0.0010727761465122686
0.00026832247023771
5.285495509095448e-07
0.00014739546080798133
0.0004862332861979976
0.0008548809122593008
0.0011702073301313462
0.0014423682766444956
0.0017510835964286821
0.0022058443524875628
0.002855506522047412
0.003663694563411443
0.004620659681036541
0.0057310661189005985
0.006995388108799984
0.00840937683878917
0.009963367218743163
0.011641487087829853
0.01342091644101556
0.015271470316608488
0.017155544007911864
0.01902876426049835
0.020840943250510932
0.022537489318120864
0.024061280956240026
0.025354641627083587
0.026362078780951828
0.027033556299451113
0.027328337384685635
0.02721920419766181
0.026696342908825676
0.025770144986571906
0.02447213321298194
0.022853654756860586
0.02098222388850372
0.018936083566702063
0.017039635933070285
0.016337138277940366
0.017347603263631203
0.019568035257658066
0.022170104655416578
0.024176839916936588
0.024966055788735574
0.024422485449920626
0.02261445825596834
0.01966148707049477
0.016026812747191935
0.012542438724396138
0.003789959302474014
0.0037001769140950747
0.0025103996754895263
0.0010740579842146692
0.00021956748901744302
1.4680763404178842e-06
0.00021633124779414485
0.0006524580438287407
0.001146182815424522
0.0016335005668410849
0.002161555666351038
0.0028435930102878003
0.0037601033632327255
0.004909325904002593
0.006298448853503962
0.007942001719385158
0.009846920158118444
0.012010899098401313
0.014420806769294994
0.017051366318448998
0.019864322927610506
0.02280842047568073
0.02582008717027005
0.02882528962347326
0.031741779073727217
0.03448188295799621
0.036955769135567064
0.03907459475437926
0.040754595968233005
0.04192147977022276
0.04251551841680809
0.0424969557977508
0.04185080012281888
0.040590200137666045
0.03875748788662086
0.03642231441409028
0.03367709587260256
0.030630144940958465
0.027693201908353417
0.026151952338431872
0.02653333746777252
0.028008314208801566
0.029480475980574256
0.029954724957881842
0.029011812328469576
0.026785453765070934
0.023573529726352672
0.019708474555519974
0.01574708100285432
0.01231342682441963
0.00609542195445098
0.0062370077788070485
0.004827543791651904
0.002729275269761136
0.0010899594557884798
0.0002118986418329456
4.917004679552754e-06
0.0002831476205498211
0.000836927269833032
0.0015078325661590625
0.0022606363201666813
0.003164684410810369
0.0043204314780176615
0.0057838942501543785
0.007590360961556499
0.009767932865068343
0.01233292795414593
0.015286695935541043
0.018613029041716272
0.022276342427883903
0.026221171762107847
0.030372947746224722
0.03463993059352883
0.038916644505823085
0.0430875062408752
0.0470308866060973
0.05062342574057609
0.05374397922843163
0.05627837435128174
0.058124747029025293
0.05919948241477831
0.059443860915276585
0.05883006278557833
0.057365760343959224
0.055096012519391786
0.05210201180776215
0.048496397338577774
0.044415793432405044
0.04031825457153914
0.037574098067546205
0.03666902595621165
0.03659297935530894
0.036182845642310675
0.03460773410992371
0.031723059483281565
0.027879938920348738
0.023517974195921422
0.01904992349437944
0.01499459832818199
0.011744031347178021
0.009032895949500793
0.009579626789080295
0.008150877181302653
0.005503885090616685
0.0030139350263189016
0.001234724503428981
0.0002538840651675422
4.0098313657163115e-06
0.0003187451014321831
0.0009795378658006637
0.0018357448321143226
0.0028505292528494355
0.004107121372116454
0.005726608755544022
0.007779874050744137
0.010312190004317266
0.013353451478598932
0.016913250672641503
0.02097710129271517
0.02550417433654481
0.03042696672109827
0.03565311774428055
0.041068403545864905
0.046541530465919786
0.05192881934532896
0.05707899208200615
0.06183815923421879
0.06605381114056373
0.06958031953495779
0.07228469399826845
0.07405367877642283
0.07480181401856885
0.07447906109549467
0.0730773394194099
0.07063404452062085
0.06723210398756539
0.06299596657362132
0.05808409588405268
0.052941132499766376
0.04881191096111434
0.046112130068479064
0.04389054114411762
0.04116005423837428
0.037396755616171035
0.032724103797471926
0.02760967731385224
0.022505513831046955
0.017779644917798595
0.013839870770449066
0.010875018032858997
0.012546382616856203
0.013689415129868524
0.012515943007854989
0.009580822466867159
0.006361010727959419
0.003602115194322379
0.0015711578011846526
0.0003762259723213827
2.1771566801713995e-07
0.0002615422735553428
0.0009202373482479786
0.001798430139366908
0.0029039240134580025
0.004390793589966378
0.006361803618822468
0.008882295250386484
0.01200082098792129
0.015742559772561067
0.020104209705331524
0.025050976792664978
0.030516122992100443
0.03640299130351941
0.04258856827765904
0.04892871843231251
0.05526320925372661
0.06142056235362234
0.06722303937194618
0.07249071617561079
0.07704721723566829
0.08072629267491953
0.08338013810636319
0.08488938694348656
0.0851727884301653
0.08419617043428719
0.08197816784743422
0.0785920189134748
0.07416262409523451
0.0688592910294099
0.06305329468683175
0.05766771377713555
0.05304104802943275
0.04853126755518376
0.04353524036541588
0.03789706050331734
0.03192563527253951
0.026072063937681245
0.02068612480046777
0.01602065257664721
0.012361983584268559
0.009751738245247494
0.016513853472768684
0.018441099608836095
0.0178471474184015
0.015013264056963613
0.011382903311282045
0.007798663432905285
0.004651270502356289
0.0022156821437664628
0.0006908311122710863
5.440628224923379e-05
7.607760244672896e-05
0.00047345494878865116
0.0011210132829901612
0.0021247737211134137
0.003600404057907269
0.005634832122055518
0.008299837488837973
0.011644080001965987
0.015686591066756284
0.020412717493037476
0.02577279139134888
0.03168351613931631
0.03803109286480882
0.04467590089906072
0.051457077460158
0.05819678990427703
0.06470491071443255
0.07078273958034222
0.07622913519274126
0.08084766504483958
0.08445622082085244
0.08689883374982109
0.08805771122551038
0.08786464909414475
0.08630923995472357
0.08344272872160195
0.07937646434580967
0.07427532221890837
0.06839426069879236
0.062215575139374577
0.05601070454036294
0.049617767746682195
0.042921858929501726
0.03609745287331906
0.02951603406655072
0.023504917942138298
0.018257907348870554
0.01390768059802691
0.0106477130130601
0.008429625424527574
0.020737100775912693
0.02360823659378737
0.02393524517769494
0.02168715407363741
0.018143040650526757
0.014136958145295852
0.010098949550855798
0.006406939415116089
0.003474382429417266
0.0015298099733271142
0.0004896196625956068
7.873216034146275e-05
6.361104973403784e-06
0.00022010712967666062
0.0008187975024258951
0.0019110954428415866
0.003595087275932665
0.005949089453206938
0.009023845045847858
0.012837032375790775
0.01737049923987718
0.022570345651399547
0.028348755961636864
0.034587546081381586
0.04114183201876512
0.04784352508673623
0.054505363746757865
0.06092445908726327
0.06688807743329228
0.07218113681469926
0.07659643521559352
0.07994754166290144
0.08208234694263718
0.0828964573391501
0.08234373832140748
0.08044217963729437
0.0772744465884964
0.07298248341595885
0.06768833639466709
0.06142276544668349
0.05440655940071225
0.04698904273157594
0.03951061310970114
0.03236437953948129
0.02587836142247573
0.020217693880381794
0.01543564228321482
0.011582605845570394
0.008795899803367072
0.006981060962427877
0.024938343583814176
0.02885593142320644
0.030417838314245535
0.029283013512385513
0.02645174467385305
0.022646924048163833
0.018249731910016897
0.013651406250581172
0.009418341349817708
0.00605572618362074
0.00374337977499947
0.002356223708467497
0.0014455575662757868
0.0007018768734806496
0.00017745659246267396
1.8276050734553136e-06
0.00030082757223645927
0.0011862589874827149
0.00274665520398667
0.005040124662536753
0.008089841791322069
0.011882313059639094
0.016367761613932212
0.021462347249464126
0.027050958861729618
0.03299018927549826
0.03911190691283531
0.045226475342327474
0.051128142729441044
0.05660193105484639
0.061433336194151276
0.06542072635336552
0.06838899035398464
0.07020350363303193
0.07078193142838567
0.07010217609973078
0.06820509213171773
0.06519166720947055
0.06106031204733641
0.05547812092190543
0.0486222007437776
0.04123565562738923
0.03396923516353367
0.027306098108632212
0.021484463417515712
0.016538317099003674
0.012436956852298084
0.009194995169623835
0.006918898499293272
0.005496482697715603
0.028774827644478754
0.0337549789172603
0.03678126170878629
0.037251392944809565
0.035807317562350456
0.03297289217216985
0.029002953882863402
0.02421151347628069
0.019219602530841765
0.014763057824301356
0.0113347972147529
0.009071660703046472
0.007410563199293628
0.005738920812054033
0.004043754777041643
0.002473322492727587
0.0011809380809497056
0.00031336837286448035
3.061132534352609e-10
0.0003438336733087725
0.0014149822011687773
0.0032469838304845277
0.005835613612492082
0.009139884975696946
0.013084210817168903
0.017561309359051182
0.02243558103734023
0.027546546498404878
0.03271342965528404
0.03774114734066267
0.04242835209221545
0.04657783622987228
0.05000844656149777
0.052567792327380944
0.054144050451591506
0.05467491642820835
0.054152776761267854
0.05262500359702972
0.04999526008622946
0.04571205863974197
0.039897526694838294
0.03347567891944987
0.027221236722446345
0.021612927122661905
0.016811316862470158
0.012784169653299175
0.009476083628831376
0.0068978714487945075
0.005135464806481548
0.004076149276875428
0.03187576546844663
0.03782535654381337
0.042401356539065974
0.04483197020357162
0.04537485802647783
0.04429830800774527
0.04167684241544562
0.03767357084057355
0.03285141602284179
0.028068427092302894
0.02409001000151319
0.02134785067475831
0.019232901081990293
0.016863819672295402
0.014162553634792602
0.011292077098568436
0.00843059320375674
0.0057586029798937155
0.003446374895640077
0.001643026030762647
0.00046795373415989836
5.111024609793025e-06
0.0003001590790959374
0.0013601586881818914
0.00315522957441547
0.005621422191933851
0.00866431317759608
0.012162762588390543
0.015973224127773872
0.019934673680545023
0.02387465097319985
0.027617071945073877
0.030991158825909443
0.03384160291641004
0.03603883540824974
0.03748795016522179
0.038135515390598076
0.03797305260703486
0.03684776869124767
0.03414095153112848
0.029899953024651076
0.025010657129087052
0.020213184852065427
0.015933493947585503
0.012290879608265436
0.00924473176334605
0.006752739783194318
0.0048341037160688355
0.00355545894594844
0.0028146283786427053
0.033896651639452026
0.04060575734447822
0.04662751930542737
0.05113825761262442
0.05404758799527952
0.05535818670575187
0.05494679952464015
0.05278454025214498
0.04927251671876512
0.04523963651721903
0.0415929582090017
0.03899084629810325
0.03685790342628374
0.03416590722295925
0.03079398125649126
0.0269140980468491
0.022724215210678397
0.01843396045721292
0.014250582451502732
0.010366239953584683
0.0069476600646919354
0.004128473039372063
0.0020047166431267044
0.0006331155369811895
3.191257182000215e-05
0.00018348207782438255
0.001038004733513086
0.0025176037751798498
0.004520610772568802
0.006925865943094235
0.009597345564008517
0.012389459721645818
0.015153230415436335
0.017743365369096906
0.020026211230194813
0.02188762831804242
0.023240184272517807
0.024028813946071006
0.024081609591795092
0.022830503929921954
0.02024092057776566
0.017010227269062456
0.013745503030673269
0.010799988900786624
0.008278285371498044
0.006161200800722702
0.004431851920175431
0.003116346958789056
0.002261531984389044
0.0017832354423776018
0.034580772592345446
0.041736740812122454
0.04889798721056511
0.055306006901964425
0.06061257686453592
0.06459554947555826
0.06695931447194343
0.06748527546805416
0.06634203876174245
0.0641702593902295
0.0618256438525907
0.06003750533268667
0.05833931856072783
0.05574099767158543
0.05211852366144795
0.047646139484532786
0.04253403717844926
0.03701276721574761
0.031317917745881586
0.025676198588184672
0.02029376938574678
0.015347303121748476
0.01097807969958139
0.007288933165926892
0.004343984874953146
0.002170547830608539
0.0007623680928681216
8.382448274158798e-05
7.410363230414569e-05
0.0006513202449493631
0.001716341567874799
0.003156628412858734
0.004850300460267745
0.006670839551720201
0.008492669362724478
0.01019730692892573
0.011680007574558861
0.01285602493353059
0.013562430923903175
0.01334809467059696
0.012113827854375578
0.010313219072882225
0.00838026665400624
0.006585381620735308
0.005023718530145226
0.0037005643229931183
0.0026197836721655594
0.0018080334107527297
0.0012942661556717007
0.0010165669967785202
0.03381504900855861
0.04103992425195868
0.04886285001740061
0.056678717894150965
0.06400187533235568
0.07046650379991366
0.07566733287061216
0.079241438334455
0.08110648203341358
0.08159258778939933
0.08130741856676413
0.08085954716918592
0.07994403371791665
0.07779968403385937
0.07434176507511815
0.06973884004035942
0.06420308923953752
0.057973902989716865
0.05130187706447025
0.0444343510066611
0.037603325339291734
0.03101591468382104
0.024847801345433136
0.019239062518806294
0.014292804983698488
0.01007593425702795
0.006621431768857473
0.003931982356102967
0.0019837630340390562
0.0007303470044745305
0.00010622660680642711
2.9975149796576497e-05
0.00040731254201311246
0.001134343525922591
0.0021013898922578587
0.00319761424907478
0.00431640592979911
0.0053612654627673674
0.006193412360582177
0.006496183884274929
0.006139629225247555
0.005355457526099284
0.004407573216414282
0.0034792588951224365
0.0026480287813877013
0.0019326475622644971
0.001346977385476003
0.0009129299973031546
0.0006462051379285793
0.0005075580843085964
0.03166513661223989
0.03857110343564711
0.04648161125850618
0.0549839953590882
0.0635726364912853
0.07183517421397526
0.07933939866091931
0.08565461815712336
0.09048868482014819
0.09381804352382325
0.09587203805700976
0.09698269448826538
0.09702007883614301
0.09557787008780583
0.09263728530529475
0.0883507435095144
0.08291861078409532
0.0765729168162105
0.06956169385111896
0.062134878973815186
0.05453278145718999
0.04697672648777878
0.03966233876691482
0.032754768012817494
0.02638612691616478
0.020654960583538304
0.015627024261695235
0.011337747253734199
0.007795111209115896
0.00498309532349093
0.00286491677322681
0.0013860472999618445
0.0004770157567564242
5.611460783607967e-05
3.238591065283074e-05
0.0003091852970964016
0.0007884601387391527
0.0013756719638747014
0.0019600206509835733
0.0023422523097572858
0.00239497191407372
0.002189933429965443
0.0018516714387613023
0.0014820197824269134
0.001132367002972647
0.000822218816036566
0.0005659324580362403
0.0003784656511969936
0.00026762623139130236
0.00021338942155870147
0.02837393407400758
0.03462368200821121
0.04205613344747508
0.050437085985123406
0.059324773608314355
0.06834283494916156
0.07710770151876359
0.0852053115611369
0.09222476134857498
0.09784643197560963
0.10191184309633812
0.10441794756959223
0.10537644383484916
0.10474737972061772
0.10257680480877975
0.09898857543022932
0.0941547794641404
0.08828118399613527
0.08159326539526475
0.07432374291787501
0.06670230389736356
0.05894708119241192
0.051258105543455786
0.043812036266236296
0.03675849779255303
0.030217895352487208
0.02428044427353887
0.019007093395533376
0.01443101860239152
0.010560345308063716
0.007381127730273997
0.0048602893899678
0.002948738781939465
0.001584049713320504
0.0006933343785834716
0.00019628360160878452
8.64257917100955e-06
4.6151017270122885e-05
0.00022293143035741073
0.0004233876767916003
0.0005427383909870393
0.0005620331502688141
0.0005108850213167719
0.0004270117615156321
0.00033439710373053133
0.00024524270567108294
0.0001689374341237467
0.00011368424296612457
8.337124991839109e-05
7.102094344309518e-05
0.024316089187879298
0.029671364542646832
0.036172163098410315
0.04371179483524748
0.05194895013156681
0.06058787457520185
0.06933688231944923
0.07786087096177968
0.0857387652367228
0.09249473813194867
0.09770238017461474
0.1010874075528109
0.10273622734662304
0.1028707016666402
0.10157449270303007
0.09893279670810749
0.09507499148198612
0.09016363152642555
0.08438353773562228
0.07793209120916211
0.0710107982079652
0.06381799030324076
0.05654253017622386
0.049358185563649515
0.04241876249105066
0.035854378912531744
0.02976871871996157
0.024238259754289806
0.0193125354726784
0.015016042267498175
0.011350810135265574
0.008299598219935304
0.005829147593530834
0.0038932268563813986
0.002435508583402598
0.0013923540303775923
0.0006956537785529558
0.00027585303659013934
6.70830997137504e-05
2.8947787654481356e-06
6.479897182678986e-06
2.430688606351647e-05
3.596944412316907e-05
3.899394669384848e-05
3.583484827187764e-05
2.916151298686994e-05
2.1822166267120455e-05
1.6541138601089816e-05
1.509262843969833e-05
1.6833338148257855e-05
0.019919943088981276
0.02426456492165623
0.029560871135286392
0.03576895870584272
0.04264601433705347
0.04998253319557438
0.057581558445960426
0.06520859203013275
0.0725163160521644
0.07903371756490264
0.08425967697437771
0.08780426447675496
0.08976113535381287
0.09044630757889939
0.08994317096384573
0.08829598324390696
0.08558541821308577
0.08192202481219893
0.07743921777714742
0.07228688697020234
0.06662518714810449
0.060618599491550705
0.054430138891101154
0.048215472942404955
0.042117401512540065
0.03626090263184426
0.030749363271331494
0.025662426443477913
0.021055499094341252
0.01696076868576399
0.01338974877547694
0.010336150147116417
0.0077792702906996246
0.005687059087811353
0.004018849933109147
0.0027277497336662118
0.0017628163577573183
0.0010712161730568374
0.0006034136238455416
0.00031728832559939916
0.00016045390184284863
7.969191073751709e-05
3.9206628038833244e-05
1.886727333171241e-05
8.667103207294819e-06
3.660672769479631e-06
1.218803542997782e-06
1.1280311977761495e-07
3.098184694445195e-07
2.3546249099504408e-06
0.015585158373460481
0.01891933787028769
0.022933952508783603
0.027609022171490465
0.03278143139473268
0.038311628731106835
0.0440756758974228
0.049926724652082775
0.055627408482543196
0.06082527490843995
0.0651156499817848
0.06815703041703741
0.0700108276001908
0.07093855407686946
0.07099438009247921
0.07018910946103438
0.06856001746996786
0.0661682131646257
0.06309571414986279
0.05944190928661939
0.05531970790865492
0.05085096110109773
0.04616150556692392
0.04137575000010076
0.03661116169204482
0.03197328955256058
0.027551759332699023
0.02341771697684642
0.019622855669963843
0.01620006176815925
0.013165266997121073
0.010519908875106683
0.008253841013315392
0.0063478890844617854
0.004776063309891468
0.0035074096363144416
0.0025075220463771078
0.0017399660067782606
0.0011691593679128494
0.0007646468870981325
0.0004922818553446432
0.00031393594899906856
0.00019810290429263358
0.0001225122121886064
7.304762221220242e-05
4.090604261110875e-05
2.0328908191257003e-05
7.703822746013764e-06
1.2479013923821988e-06
1.8516971581729755e-07
0.011623802469271442
0.014037769477564202
0.0168564853049155
0.020056854879042373
0.02353729999510428
0.02721012069463746
0.031000205515094463
0.034823574048259
0.038548164037803416
0.04197684693136217
0.04487894344718205
0.047051854157468286
0.04851636996845555
0.049408220149887966
0.04974383010137417
0.04951391721540027
0.048725450055178296
0.04740205302629699
0.04558368158626261
0.04332554833441991
0.04069598418710154
0.03777341480201479
0.03464256722903457
0.03139013062695035
0.02810029294115531
0.024850690444310656
0.02170905790060738
0.018730986881697966
0.015958935002259998
0.01342230583608942
0.011138549799615845
0.009114709262121466
0.007349268621577428
0.005833882009013631
0.004554838105155739
0.0034943331669596307
0.002631483224464112
0.0019433080064980642
0.001405789392890969
0.0009960744173734583
0.0006924094688475268
0.0004723454776002892
0.00031501622046781284
0.00020343257189382375
0.00012507436422942776
7.110512128059702e-05
3.52957320374561e-05
1.3340625858640428e-05
2.368142515682413e-06
1.381851947690714e-07
0.008236549908428783
0.009876036396653364
0.011690541258943168
0.013651086553872595
0.015705535368534217
0.017806654435580604
0.01991289416921748
0.021982985438303432
0.0239650825801336
0.025792014980380116
0.02738895614210327
0.028687849192976008
0.029677805416518013
0.030377571917555597
0.03077512955461482
0.03085374258146505
0.030604721695868534
0.030029181979325206
0.0291391356939037
0.027957739185990194
0.02651849479369009
0.02486357795969311
0.023041345858676125
0.021103525030272442
0.019102251208515882
0.017087327152895303
0.015104052972413292
0.013191542139713882
0.011381842144460915
0.009699508723091138
0.00816184385242066
0.006779334176539734
0.0055563841455939025
0.004492079168632384
0.0035809984969669088
0.002814003971300097
0.0021790696764319847
0.0016621355626391392
0.0012477890783883763
0.0009202462719019325
0.0006652904869935384
0.00046998471796894244
0.0003223618390290705
0.00021220063536859593
0.00013140181699698264
7.388945102856585e-05
3.518965950340112e-05
1.1932379081510182e-05
1.36059506893622e-06
8.178133485682652e-07
)
;

boundaryField
{
    "(inlet|outlet)"
    {
        type            zeroGradient;
    }
        "(front|back)"
        {
            type            empty;
        }
    "(top|hills)"
    {
     	type            zeroGradient;
    }
}

