/*--------------------------------*- C++ -*----------------------------------*\
| =========                 |                                                 |
| \\      /  F ield         | OpenFOAM: The Open Source CFD Toolbox           |
|  \\    /   O peration     | Version:  v1806                                 |
|   \\  /    A nd           | Web:      www.OpenFOAM.com                      |
|    \\/     M anipulation  |                                                 |
\*---------------------------------------------------------------------------*/
FoamFile
{
version     2.0;
format      ascii;
class       volScalarField;
location    "0";
object      nutCoeffs27;
}
// * * * * * * * * * * * * * * * * * * * * * * * * * * * * * * * * * * * * * //
dimensions      [0 0 0 0 0 0 0];

internalField   nonuniform List<scalar> 
1000
(
0.001820453622517359
0.002388006600868374
0.002857180347895994
0.0025188475654903198
0.001351210002601995
0.0002335526457885348
0.0001177001381316029
0.0014197325063334974
0.0037354122664075757
0.0062587407328552535
0.008612266581216606
0.010982911132314775
0.013639152844595003
0.016622308449178638
0.019903463379617865
0.023432079641475846
0.02713242280731565
0.030903018488050674
0.03461932826435736
0.03813997104758569
0.04131590246352488
0.04400178517855435
0.04606799742096115
0.047412197802519464
0.04796847941633727
0.04771336691860895
0.04666764212397497
0.04489383337266861
0.042489793350381326
0.039579168546142636
0.03630030186524159
0.03279453136327593
0.02919613423161219
0.025623983766713824
0.022176151715602787
0.018927626696786076
0.015930501011849178
0.013216282887316718
0.010813889942552425
0.008750462514960916
0.006819364198610903
0.0047387121069271225
0.002619443560907373
0.0009756936214931288
0.0001561028202406426
2.650613876451122e-06
6.819799993208221e-05
3.659600933142302e-05
1.589832418656277e-06
4.290543307796725e-05
0.0013998075356503918
0.00196295888046396
0.0028260543924633896
0.0033239886622883647
0.0027989205903926704
0.0014932128994317177
0.00027482385036613617
0.0001072815503017143
0.0014314798400060966
0.0038261366073454608
0.0065470299957819614
0.009132035393544872
0.011658823121090376
0.014437696796782027
0.01753312107052659
0.020895040546833242
0.0244445754192218
0.02807388669132919
0.03165001271266468
0.035022897132893936
0.03803691791815943
0.04054442179619743
0.042419321309508415
0.043569113401324626
0.04394322091180327
0.043536905961639734
0.04239017695360575
0.04058223647072771
0.03822223883139599
0.03543816225215084
0.03236518667664161
0.029134720578384652
0.025866073812845006
0.022660265338570976
0.01959691545513909
0.016733797567768213
0.014108365222083374
0.01174070004640646
0.009562502311053184
0.007319811527603347
0.0049216484542678445
0.002624622101435576
0.0009058074438473395
0.0001046562768811826
2.1225410441143706e-05
0.00014223980258888053
0.000108604047645949
1.023221698430937e-06
0.00010418925427999283
0.0002607607857776599
0.0007847304408129537
0.0011948419831507738
0.0021333160455080996
0.003296330978846943
0.0038204201239285906
0.003255892015675256
0.001857441833931884
0.0004528867503650746
2.4173035901897507e-05
0.000939768369220604
0.0027145734040116007
0.004538193411138579
0.006171255347684996
0.007954005223081897
0.009990599140465297
0.012245145336179385
0.014656519753485768
0.017138621831039456
0.01958455866645483
0.0218746733928901
0.023887610844102583
0.025512719438617742
0.02666166515301231
0.0272776568128356
0.027340509803092664
0.026867093756360035
0.02590738298669621
0.024537085702843426
0.022848230747206797
0.02093929782646189
0.018906401269180712
0.016836173037450494
0.014801241813751103
0.01285792155658697
0.011045929101782289
0.00938980819586247
0.007901223096732994
0.006581748243566332
0.005309101123405386
0.0037196620600127477
0.0019375848581267708
0.0005741062107659237
1.923836225086006e-05
0.00010745461734304384
0.0003002154051179674
0.00024129657649583583
2.941982600753154e-05
0.00010284552655813775
0.000565538602385574
0.0008661191631407543
0.00024039436598329708
0.00042902880844088203
0.0010978016546323596
0.002391337473139728
0.003747413742285138
0.0044085240925636855
0.003955959930991983
0.0025453121971797613
0.0009590461324236621
7.856645555603286e-05
0.00011592686489036508
0.0005779880775578113
0.0010521409926484827
0.0016091289330688215
0.0023016324387109197
0.0031156802911696947
0.004021171885092683
0.0049722912124123796
0.005910903780330721
0.006772711445029361
0.00749524057266481
0.008026152553447548
0.008330189216632027
0.008393447504814638
0.008224111089810571
0.007849814711940857
0.007312365304135659
0.006661134285518924
0.005946438309607103
0.00521404413972417
0.004501494335506466
0.0038363229794477374
0.003236054335707536
0.002709307375254413
0.0022576025826650595
0.0018773466248352894
0.001561683910544387
0.0013020199852561702
0.001022344985755674
0.000540487385784933
7.988513296277414e-05
4.84621893706376e-05
0.0003839004513385146
0.0006241372318703129
0.00047043713987634356
0.00010757848209356032
5.019599526822179e-05
0.0007076828300318645
0.0016592182534497537
0.0020388644455641525
2.328944740086277e-06
2.0820853425582804e-05
0.0002457821688542894
0.0010887047392961135
0.0025492062867298053
0.0040931309236999554
0.005041572793813901
0.004903844753788751
0.003743118728279122
0.0022493938257329674
0.001136986648812848
0.0006162886821682039
0.0004112262728497248
0.0002684939468517248
0.0001516846509504502
6.82509451386895e-05
1.963934632062685e-05
1.0780684310615442e-06
2.968898476899658e-06
1.3622172983025534e-05
2.259270451427521e-05
2.3614163727365685e-05
1.620562408695168e-05
5.4456655199753205e-06
5.825177079655295e-09
9.109793057278434e-06
3.940982864399671e-05
9.274018491842123e-05
0.00016535644319098984
0.00024874349849279354
0.00033159094045411155
0.00040227509919887763
0.0004511423165283026
0.00047211703210268513
0.00046342597820700493
0.00042747925209883533
0.00037009852286625904
0.0002993424243309993
0.0002547603578841087
0.0003583514294128309
0.0006930777817820519
0.0011060210639585713
0.0012222802877541238
0.0008329039167586114
0.00023276234123545837
1.5513984876880088e-05
0.0006763707550183799
0.0021662991367690323
0.003497204942987518
0.0037886967458560586
0.00014184821978877965
0.00013342273325729008
1.2998321123804646e-05
0.00014479611973697998
0.0009595962452597775
0.00244088918408086
0.004178738107892475
0.005544745564750288
0.0060022040073219995
0.005571150552500511
0.004829683545507621
0.004403381808666746
0.00433813247604811
0.004328292307083568
0.004306963222362665
0.004296518670314289
0.004319783962319184
0.004398434247637188
0.0045517133413548036
0.00479524537044101
0.0051396475459506265
0.00558863300561669
0.006136621576659544
0.0067663913574194275
0.007447537120366946
0.008136701305048922
0.008780395096798217
0.009320226255018467
0.009700108659354893
0.009873872688446899
0.009811773734686514
0.009504546636627028
0.008964335145531509
0.008222580597089274
0.007325560301923994
0.006328741084968524
0.00529078967643214
0.0042681023626830305
0.003389742719887253
0.0029056208916580775
0.002662283480336027
0.0021989300889145285
0.0013258100067257037
0.0003802951423548937
4.368850254561359e-06
0.0006676180471580744
0.0023911276506521587
0.004538232139207193
0.005875383952983477
0.005863764756320657
0.0005162317621652642
0.0006319903687866059
0.00046863972993700957
0.00011052447688324108
3.5473366360228786e-05
0.0006226174315421629
0.0019551601404205754
0.0037826122356938953
0.00554727200559905
0.0067468202185749235
0.007366667669950057
0.007797988554782239
0.008302206251988617
0.008847008725157358
0.009428327844295861
0.010075806882293667
0.010820416369834
0.011691485270103972
0.01271315388836826
0.013900236537627059
0.015253539603965274
0.016755081594316847
0.018363971881321633
0.020014290904314926
0.02161618781084461
0.023061109985533592
0.02423159548043366
0.02501433049891756
0.025314775832503755
0.025070505611156275
0.024260617117045476
0.022909458296211032
0.021084097862360627
0.01888630199393952
0.016440787310176754
0.013882060842762564
0.011341598496265516
0.008936862838507531
0.006799763312651431
0.005039060422817728
0.0034425338993216894
0.0018274251829801457
0.0004830039719349565
5.940133691994175e-06
0.0007799099758719292
0.002706363148381231
0.005234734918126037
0.00741159613635354
0.008253892420852414
0.007774317221900619
0.0008449409104987074
0.0011522362987617196
0.0012534596613770744
0.0009391877583277026
0.0003965721654466816
2.1984469427740354e-05
0.00018482338136509687
0.0011036182080733513
0.0026682634558968885
0.004417081890114244
0.005888736705075247
0.006913705541509495
0.007696417142022522
0.008507658910425243
0.009431079241461084
0.010498799239571225
0.011742399310969726
0.013189235938005802
0.014857816469724451
0.016752279342456173
0.018856375189753444
0.02112777383034307
0.02349385323786162
0.025850647047566466
0.02806617863555436
0.0299891683010134
0.03146306852477864
0.03234363972955975
0.032517912516157516
0.03192077612015119
0.030546186420884292
0.02845061687970378
0.02574820099306341
0.022598500344605168
0.019188941945467
0.015715355753498205
0.012362841009721338
0.00928956231627299
0.006574389780416988
0.004129912513949091
0.0019588607618756426
0.0004190342568835033
3.780830540230497e-05
0.0010953784376026648
0.0033284378852640544
0.006088224858140415
0.008566265745505713
0.00996124063649843
0.009914378284009132
0.008944069629462537
0.000877544939339042
0.0013159292682935972
0.0017934845094409034
0.0019878690652547024
0.0017237213054911791
0.0011116488595512865
0.00042302797204636785
1.6784447001265294e-05
0.00019564293854496578
0.0009415759193313278
0.0018885938155273655
0.00260618512373448
0.003077594376758643
0.0035762097861128076
0.004199516171800468
0.004978688755051136
0.005945270025229289
0.007127712994120196
0.008546687989578333
0.01020919684870042
0.012102195644886444
0.014186601334333441
0.01639292536130488
0.01862017237078905
0.02073907396630356
0.022600689113388098
0.02405023359077128
0.024944670658538844
0.025171880252448237
0.024667952770919564
0.023429364055259853
0.02151747690207785
0.01905416837749788
0.01620915294216937
0.013180892601256884
0.010174291073661006
0.0073783171147288875
0.004946700281076809
0.002920326329078381
0.0012139916175993826
0.00012793020990046707
0.00022959672279847744
0.001763398166616626
0.004383839322107682
0.007326982526939404
0.009810593529734509
0.011222225478311719
0.011260423136009551
0.010243934505418347
0.008936719278836654
0.000564351666422086
0.0009764595272353203
0.0016706357605434183
0.0024447452746955488
0.002951547128098181
0.002994459489078109
0.0025377238651692596
0.0017133911520095253
0.0008421363269340421
0.00025402953103270605
2.813250795602458e-05
2.1655139848182745e-07
8.45264330225829e-06
2.9350298644031236e-05
7.894674728159037e-05
0.00017898477279778223
0.0003578800099959441
0.0006486105518960368
0.0010847150545795529
0.0016946326473999292
0.002494982259239368
0.0034837743562464384
0.004634725890719184
0.005894106141626668
0.007181272284833011
0.008393850513133745
0.00941774653007864
0.01014111234596524
0.01047056618640292
0.010346889923326169
0.009757249626862152
0.008741196454684581
0.007388902401511488
0.005831318341096726
0.004223597546404966
0.002724521894319083
0.001475095412230546
0.000579896289468411
8.086128043245201e-05
8.682860392921134e-05
0.0010028435894691196
0.00306639859955285
0.005963067372937386
0.008928855788591785
0.011193532148535964
0.012284390036821557
0.012047781090082874
0.010713951892900543
0.009021938205577498
0.007660446667609952
0.0001352660162808849
0.00035762334603378447
0.0009311499378309116
0.0019106286150216702
0.0030563040387537894
0.004073511506594302
0.004708770256124814
0.0047896892150606635
0.004346082809905987
0.003662835249996365
0.00310664249950967
0.002933313532739717
0.003023346203230817
0.003073941374104879
0.0029979381908302
0.0027910888744990857
0.0024639956775129985
0.0020426426584151404
0.0015664578707927407
0.001083961012228916
0.0006464103454880717
0.00030028826942145033
7.975140182030011e-05
3.143067126687249e-07
5.5114541259911106e-05
0.00021482470121995533
0.00043180948985002004
0.0006483215819881771
0.0008076578893182193
0.0008663188264105842
0.0008047098274475762
0.0006339459651985497
0.00039689091411941835
0.0001626951346309825
1.543005108479851e-05
3.875603881198984e-05
0.00029945858986040017
0.0008330926656607359
0.001684432743288902
0.0031076364659630607
0.005328703312332492
0.008059782572077982
0.01063855996990936
0.012375110123755848
0.012901985650906118
0.01220636714798906
0.010531558094523845
0.008393991366196424
0.006567807889443516
0.005450127025675431
3.3511850207882516e-05
6.57787614789731e-08
0.00014482195422450782
0.000755286170909936
0.0018775779725992224
0.0033576766978720275
0.004964074361691235
0.006420738560994429
0.007494644820778418
0.008166713160627635
0.008678132323753966
0.009379463050545604
0.010279989079284943
0.011078438579799737
0.011644501093216908
0.011931281233229795
0.011910346288504152
0.011576193760888706
0.010948199966642497
0.010069523644813352
0.009002993563230163
0.007824296087719012
0.006613489361389678
0.005445948821913146
0.0043843600639595715
0.003473109007705067
0.002736061741333805
0.002178323758661064
0.001791339187147398
0.0015603174092974493
0.0014720965564928722
0.001521459396016669
0.0017142210066295647
0.002066042948478662
0.0025970481449926006
0.003323280702228709
0.004247014215983392
0.005348339698170608
0.006638799009233212
0.008284162194793275
0.010202192557176788
0.011862738455235253
0.012718031729824443
0.012505603567230844
0.011311347925825672
0.009409901383857963
0.007173829154888253
0.005085475312757588
0.00365977170529719
0.0029727788339957255
0.0007202113146922351
0.0005238325702426988
0.0001607195061867197
6.021881112665983e-06
0.00038371985785079775
0.0013820183214012553
0.00296104388269212
0.004979230007520128
0.00718805911069784
0.009336473526519668
0.011323305698533709
0.013214105890559697
0.015072864495100563
0.01682343009298973
0.01836287050518658
0.01960055885764031
0.020459882998668234
0.02088702633356858
0.020857813436356787
0.020381436763917456
0.019500246470858552
0.01828543041130185
0.01682923555924837
0.01523470178628489
0.013604855710790283
0.012032885212492878
0.010594904378300775
0.009346291885928337
0.008321539644448255
0.0075371986694813785
0.006996597096076346
0.006694902844955641
0.006623133290638527
0.006770058388413934
0.007121641162728164
0.007658372114075458
0.008351511552071141
0.009159658747184588
0.010037908061946035
0.010903377929656144
0.011471587503241657
0.011387512859406382
0.010505776450776024
0.00897400225554561
0.007086124130198374
0.005121305962359168
0.0033369731179761137
0.001987084966469258
0.0012435568372819938
0.0009840885968377836
0.0024359879267678184
0.0023126689516847214
0.0016690284551582003
0.0008029623585544568
0.00016509934415766747
1.8862708850587494e-05
0.0005126562620178099
0.001718303182024634
0.003574897624815241
0.0058574786360616644
0.008265674960383414
0.010541220045298597
0.012681415506107616
0.014797302225659151
0.01683463794083848
0.01868259128667934
0.020233578882384643
0.02139490009616794
0.02209946022344995
0.0223139340719622
0.022042688128973777
0.02132687680115137
0.020238746490117056
0.018872284811840112
0.01733192820659714
0.015721352472062924
0.014133915549448107
0.01264618378501234
0.01131466611074265
0.010175752052954934
0.009247923012127611
0.008535306610276827
0.008031503793611842
0.007722799512916079
0.007590233423515421
0.007610379788668998
0.007755112219541305
0.007990978172893381
0.008241375857451804
0.008254310212432676
0.007758858621399266
0.006726294982737535
0.00532639475012584
0.0038375100721753544
0.0024850734205747213
0.0013899749670969277
0.0006208312114525986
0.00020205861076142426
6.0739230989523166e-05
4.26970544485144e-05
0.005039963091350588
0.0052785451012475545
0.004795605702420075
0.003718535783973521
0.0024447905794271773
0.0012625471069573852
0.0003842873921428437
4.165898335075961e-06
0.0002643615763798523
0.0011517214778210942
0.0024626530189000495
0.003885986146415628
0.00531321339990069
0.006841163422506297
0.008443061908786005
0.010026609446806061
0.011490892269606093
0.012737652662175365
0.013683092203314168
0.014268106052839192
0.014465021744827094
0.014279814793592546
0.013749415510050319
0.01293506668063545
0.011913160966940173
0.010765449483828786
0.009570158533666316
0.00839529792064257
0.007294479520530971
0.006305358953910837
0.005450181563603446
0.004737830667102067
0.00416677909147378
0.003728198776047983
0.003408798298798801
0.003192984773011546
0.003064162141932116
0.0030052830576181313
0.0029604310433658573
0.0027346048399530024
0.002212168138827956
0.0015185460179727324
0.0008456903833325914
0.0003452721950278412
6.922375142763807e-05
1.7869506772102746e-06
9.973174277958638e-05
0.0002754297183446586
0.00037239859330159695
0.0003136818061514571
0.008017009098938176
0.008835779679948919
0.008955691342515953
0.008341367391234929
0.007228203237219237
0.0058077577246342885
0.004232144291831705
0.002677760406925962
0.0013654673409042263
0.0004791638183107832
6.392251931070796e-05
1.2326453902323766e-05
0.00017510479425296194
0.0005082307330526783
0.0009937631682263102
0.0015895438457638354
0.0022369343940013514
0.002868743439066666
0.0034188077882628663
0.0038314145837608756
0.004068706595549439
0.004114812906356219
0.003976138032926044
0.0036782135594922044
0.003260131133607105
0.002767885417744097
0.0022479147590653953
0.0017417384793651273
0.0012821697632528432
0.0008912725560952019
0.0005799254500721802
0.0003487815879092688
0.00019030532039310678
9.150367176564663e-05
3.691625497321285e-05
1.137891074335089e-05
2.145858753739165e-06
1.0195422488697786e-07
2.418875091993305e-07
7.293692501794251e-06
5.5295156013436645e-05
0.00019638862207307846
0.0004548562819916967
0.0008009326934040727
0.0011785711984556807
0.001542138597459247
0.0018456016987695174
0.0020059033330062977
0.001899813274868628
0.0015442896672867338
0.01065862578276316
0.01210875175664949
0.013060089199812974
0.013387111328781225
0.013154565766315377
0.012422263258105092
0.011236422603325674
0.009680113222730224
0.007923514954710841
0.006199160715844214
0.004714487754951608
0.0035809952292182473
0.0027018773883736922
0.0019491649028975306
0.001322207359619824
0.000836237063737723
0.000488442387251817
0.0002612781924706763
0.00012802969245412655
5.935282533672638e-05
2.9370192401516917e-05
2.0124053782946523e-05
2.3709077464210274e-05
4.20233794801444e-05
8.458486177858201e-05
0.00016515380450479278
0.0002979382785391277
0.0004940297679665911
0.0007585386036386498
0.0010887210462419443
0.0014732782891449048
0.0018929339165094212
0.002322212763964517
0.002732229029974832
0.003094058266906644
0.0033821305412851093
0.0035770843188122356
0.003667625815176637
0.003684373433416007
0.0037786720291806087
0.004045686271744858
0.004420448969494178
0.004799337563233702
0.005078715627973753
0.005202820235365597
0.005167694637826719
0.004976410278792419
0.004600658296544756
0.003987887194157819
0.0032047072661583412
0.012330354231344483
0.014272192297071922
0.015970251169227522
0.017284831912942
0.01816658410227441
0.01857855187142867
0.018488166854197286
0.017894940765291408
0.016870446466285636
0.015565902423550285
0.014172132172912494
0.012860969374232862
0.011628469029450467
0.010397789255715549
0.009202311627911984
0.008097632646225136
0.007124539528524537
0.006308644289624959
0.005662153205000645
0.0051871356314172785
0.00487936070273771
0.004731768662817164
0.004736999894741983
0.004888585127299688
0.005180868411124755
0.005607879404907239
0.006161531458780975
0.006829558384155305
0.00759361122832561
0.008427898232812689
0.00929878583753252
0.010165626232134147
0.010982880013446458
0.01170342084925805
0.01228249925398944
0.01268181697570968
0.012872970836487162
0.01283977198642165
0.012612049355307606
0.012338640510560108
0.01210106485721872
0.01182564656577301
0.011425441632321311
0.010842238809599707
0.010074327930341359
0.00916304228569643
0.00815192531271135
0.007060530814671918
0.005891744309613116
0.004711689926053694
0.012695908674842734
0.014855490855268435
0.016960717935748125
0.018897214758663915
0.020570686818723396
0.021903339782319724
0.0228326170753999
0.02332053404045122
0.023367559439379317
0.02302082590480218
0.02236782035200507
0.02151666741863167
0.02052649369969035
0.01942336794242528
0.018269331872102394
0.017132762482381807
0.016071970019025786
0.015133187008459746
0.014350184244583683
0.013745284138205409
0.013331226117506216
0.013113320457897032
0.013091370148039917
0.013261048760054208
0.013614467469294263
0.014139970730846366
0.014821255724717932
0.015636040788461966
0.016554716181332352
0.017539404901847296
0.018543921871127196
0.01951500618601064
0.020394962968774473
0.0211255329406143
0.021652516951689703
0.02193032039245538
0.02192583903435828
0.021620967820966116
0.021026107871077122
0.020206624171487424
0.019209709163332016
0.01803318625851119
0.016679650988018022
0.015169717373037064
0.013548185647507328
0.01187509336635894
0.010207637925710366
0.00858849799677155
0.007048314780643488
0.005631298174153894
0.011799793658353935
0.013872393051634183
0.01595721032928866
0.017968468377114386
0.01981803845228234
0.021430385272606975
0.022746784703959595
0.02372814718830343
0.02435568402282019
0.02463191159623456
0.024581880295635197
0.02425171625908286
0.02370377115894244
0.023003580623736013
0.022213582764161237
0.021392504118080538
0.020592825710264072
0.019858845039187823
0.01922589829232767
0.018720539750002332
0.018361409069266383
0.018160414190067184
0.018123885428333462
0.01825350348999162
0.018546558387661487
0.01899568248860429
0.01958793209213368
0.020303481109164186
0.02111426845513095
0.021983111740786286
0.02286371359300516
0.0237020868235739
0.02443945726603178
0.0250164920449745
0.02537830744981363
0.02547936331094738
0.025287530680056708
0.02478662584687429
0.023976929885241593
0.02287367638985801
0.021506726892802867
0.019919342977123174
0.01816325462034172
0.016294935571624924
0.014372838276038838
0.012454828481578303
0.010594946992650772
0.008839892628178731
0.007227627017815496
0.005786979701564052
)
;

boundaryField
{
    "(inlet|outlet)"
    {
        type            zeroGradient;
    }
        "(front|back)"
        {
            type            empty;
        }
    "(top|hills)"
    {
     	type            zeroGradient;
    }
}

