/*--------------------------------*- C++ -*----------------------------------*\
| =========                 |                                                 |
| \\      /  F ield         | OpenFOAM: The Open Source CFD Toolbox           |
|  \\    /   O peration     | Version:  v1806                                 |
|   \\  /    A nd           | Web:      www.OpenFOAM.com                      |
|    \\/     M anipulation  |                                                 |
\*---------------------------------------------------------------------------*/
FoamFile
{
version     2.0;
format      ascii;
class       volScalarField;
location    "0";
object      nutCoeffs38;
}
// * * * * * * * * * * * * * * * * * * * * * * * * * * * * * * * * * * * * * //
dimensions      [0 0 0 0 0 0 0];

internalField   nonuniform List<scalar> 
1000
(
0.0021394404769664466
0.0030542185004417202
0.004325180380401204
0.005495142463940089
0.00608187199070328
0.00598208352074697
0.005298113270857092
0.004263120514990832
0.0032198886643088416
0.00244331702170918
0.0020207669450035244
0.001932725200275861
0.0020111649917069407
0.0020513879072359387
0.002000833551705752
0.0018601362101528863
0.001641085187919656
0.0013653908118939633
0.0010616471505158842
0.0007609924071276587
0.0004922148325792147
0.00027711946512483116
0.00012699880943461853
4.0859064517396345e-05
5.866593177210089e-06
2.5633811676488366e-09
-3.530966592340131e-06
-3.1037474311914914e-05
-0.00010327926357986429
-0.00023166658213976418
-0.0004163493662120736
-0.0006464462510618367
-0.0009021390997599154
-0.001158147264388635
-0.0013878650464200731
-0.0015674394601162677
-0.0016791979623025713
-0.0017139065976606437
-0.0017074661150762447
-0.0018325856661507759
-0.002245258795543876
-0.0029713745538391197
-0.0039314750566737154
-0.0048698926392169535
-0.005468549902272183
-0.005517392497077831
-0.00494095473076438
-0.0038510295479573823
-0.0026731221256564176
-0.0018096637424741928
0.001645057959283045
0.0024254024718627165
0.00375168978485301
0.0053611165067081355
0.006695643377232766
0.00742179861252561
0.007415841349374589
0.006744527625717881
0.005729953157646581
0.004802742890006506
0.004246051781484418
0.004155759409413106
0.004299857655575343
0.004341226297456921
0.004194437347476555
0.0038658261343068254
0.003383792055748039
0.002795479017018989
0.002160136746336907
0.0015402877568813816
0.0009921805023535581
0.0005571210354839666
0.0002551838515081208
8.238262034793125e-05
1.2016816841101537e-05
7.935383594935083e-09
-6.671346249959717e-06
-6.0075015767816994e-05
-0.0002017830531164112
-0.00045559017153771087
-0.0008235927108104783
-0.0012862047621312732
-0.0018057223461376165
-0.0023326986605703955
-0.0028138431662994294
-0.0032001030871639117
-0.0034536867828647544
-0.0035529888432313562
-0.003552845189588137
-0.0037303308581369777
-0.004297056948741978
-0.005182913260650671
-0.006138970336126934
-0.0067728997303507345
-0.006784078052470676
-0.006112147026744564
-0.00488493563072918
-0.0034130303795310846
-0.0021857939262222834
-0.0014396073441303656
0.0010678718339410577
0.0016416067296110386
0.002816227458142062
0.004576513247583716
0.006471606632083988
0.008063855284419318
0.009036310767994434
0.00922165143880935
0.008750359085824697
0.008050278281265444
0.007568584807620113
0.007560733538239057
0.007775308788572642
0.007769434370071857
0.007434158351436647
0.006789360496771216
0.005891673548665023
0.00482753823373523
0.003701066026485607
0.00261880727921927
0.001673897885006814
0.0009322100576184668
0.0004228462519089166
0.00013456072793593892
1.897391924673769e-05
5.6907562976714605e-09
-1.211994561164768e-05
-0.0001048718496347574
-0.0003483200091197088
-0.00078353537788176
-0.0014161968793024687
-0.00221616213510525
-0.0031225695849741164
-0.004053440909534471
-0.004918139322115615
-0.005630598211941739
-0.006121504971961151
-0.006347530994079615
-0.006372408906040261
-0.006554818255726656
-0.007121277839381797
-0.007864270132364688
-0.008388798893218618
-0.00829653525460959
-0.007451755170451077
-0.006008729192619936
-0.0042737757691515684
-0.0026507709170184115
-0.001545080627353729
-0.0009823278849784285
0.0005482576985096183
0.000895338459302199
0.0017565127176062166
0.0033248613837400737
0.005389364190853535
0.007576743162352099
0.009502280861499296
0.01082090428330337
0.011391436377817152
0.011435064090917527
0.011386523227397834
0.011590303191633716
0.011845306462805351
0.011715956951022047
0.011102307394432485
0.010046327397459675
0.008641247395678512
0.007019822824224262
0.005335925289268475
0.0037424864220027276
0.0023693796672263436
0.0013047322636884232
0.0005828674581959094
0.0001807420211120819
2.3788359080847613e-05
3.0723272857608033e-10
-2.0204568363132554e-05
-0.0001619268485520318
-0.000525333645960329
-0.001170026598713869
-0.002106282680130698
-0.0032940508381408694
-0.004649131604242423
-0.006055505338938986
-0.007381843168640152
-0.008499820437292648
-0.009301841055552705
-0.009715480160067765
-0.00978862963445825
-0.009874173916327122
-0.010149427570728002
-0.010313905273047643
-0.009965737391789273
-0.008876900912723081
-0.007161079768671136
-0.005150624782104795
-0.0032237685147189312
-0.0017355713608167246
-0.0008946900522752759
-0.0005401770169695493
0.0001933220412689552
0.0003504471704757184
0.0008427029292633692
0.001956581093632062
0.0037398382500571665
0.006014919797790345
0.00848454989007737
0.01077152968769254
0.012525244937495898
0.013647913087416778
0.014337451253857299
0.014846504539294187
0.015077471422488744
0.014763589958412747
0.013857691995003642
0.012426386648730312
0.010595421261058911
0.00853373797610007
0.006430496860588535
0.004468693119596673
0.0027994835548930857
0.0015211940930335288
0.000666438644624432
0.0001993468924453435
2.3633404152601074e-05
-2.2693043715039407e-09
-3.01545111495497e-05
-0.00021879901250128746
-0.0006874763964820774
-0.001509109906634138
-0.0026976582540869745
-0.004206558602287888
-0.00593530823345509
-0.007743160596538046
-0.009468060337001151
-0.010948141091781789
-0.012043492566767431
-0.012654731819981987
-0.012785102422375258
-0.012657136909737672
-0.012345745122589801
-0.011592796483673553
-0.010180690004209212
-0.00816963174413647
-0.00589034704305551
-0.003729980958077621
-0.001999688673412171
-0.000889292365873223
-0.00037977598463535307
-0.00020936405055140713
3.070357464064014e-05
7.186729623506452e-05
0.0002603975192222718
0.0008446158237590976
0.0020318138720542057
0.0038652484528118106
0.006239004509997949
0.008897358713377913
0.011441905385542005
0.013504610461533832
0.014927771374911608
0.015703673713965315
0.01584371989349522
0.015358720115303492
0.014280236922512143
0.012690554370755693
0.01072738300924201
0.00856657218045504
0.0063988852739212424
0.004404323868453388
0.002727803057019063
0.00145968326691993
0.0006242739621049554
0.00017803874373306972
1.814518950683554e-05
-6.343006490603377e-08
-3.951509608001781e-05
-0.00025569221131145647
-0.0007728899182207439
-0.0016659229526039784
-0.0029494906266990997
-0.004576222201884977
-0.0064428586857165175
-0.008403602065335561
-0.010288890378986906
-0.01192710933405252
-0.013166929139121167
-0.013897038984125767
-0.014062108230011775
-0.01366302204497335
-0.012662938076046045
-0.01099653321098036
-0.008758101965068741
-0.006282245778067425
-0.003981179991037016
-0.00214928931600198
-0.0009269264214537214
-0.00030093818804502996
-8.805533770935367e-05
-3.8867100528230975e-05
4.824037206926321e-08
1.3479308551709737e-06
2.825158065406172e-05
0.0002078675926976302
0.0007554302325203112
0.0018467493543442984
0.0035619103763972365
0.0058426051580860675
0.008408593483174317
0.01079921696581046
0.01257205999858029
0.013433744037991592
0.013462386377310596
0.012917691123758498
0.011895698563843555
0.010475766599564632
0.00877828266514141
0.006949904287292039
0.0051450049497543384
0.003505883841998015
0.0021443875902804146
0.0011273593269749878
0.0004681511517033543
0.00012548155408076598
1.028789113967085e-05
-3.2255742301603647e-07
-4.404296750402729e-05
-0.00025224948598380936
-0.0007301277045554978
-0.0015410150270525258
-0.0026970092546757295
-0.004156903827763569
-0.005831111863484338
-0.007592895445886115
-0.009294245510608146
-0.010784469994209211
-0.011929300812743142
-0.012628034493837792
-0.01277960417566366
-0.01216874350304272
-0.01068995224993217
-0.008535903507473509
-0.0060896359334407695
-0.0038144658941118206
-0.0020372240414181578
-0.0008657155815529076
-0.0002526939373639804
-3.8526267618840564e-05
-2.5220153154518103e-06
-2.027972260100418e-07
-1.3621805912738817e-05
-7.548802832903931e-06
-6.467058550717358e-08
9.536975305119655e-06
0.00012950416785771678
0.0005343128104440714
0.0013891455627291504
0.0027921256517357052
0.004656151802604902
0.006626364550023886
0.008192633117633371
0.008916140438901656
0.008877301312684641
0.008429953675005434
0.0076870629209828175
0.006706805378740678
0.005570117823871833
0.00437115070372978
0.0032060487415188467
0.002161453140634719
0.0013039346163491923
0.0006716034766642881
0.00026905833179485035
6.65567471088277e-05
3.963747271582244e-06
-7.717288057655816e-07
-3.961948860673346e-05
-0.0002006929828925903
-0.0005548470267068071
-0.0011447450533935487
-0.0019780107735304507
-0.003025404518621062
-0.004224017234831192
-0.005484962758123631
-0.00670449100542716
-0.007776903196994363
-0.008607832573264178
-0.009125989107401485
-0.009219796767301284
-0.008567441083272644
-0.007065853284297358
-0.005091776384171012
-0.0031443986331534477
-0.001617936440733591
-0.0006492145590316872
-0.00016840053615007751
-1.4904299429235953e-05
9.362983858299417e-09
6.722431533340817e-06
1.2806835730569478e-05
-0.0001254934785090901
-0.00011806483001983463
-5.432845613750729e-05
-5.325925106883648e-06
4.561349147842186e-07
4.3027697104017347e-05
0.00025571655693111886
0.0007789660388475008
0.0016708628834921815
0.0027809013714971856
0.0037488476653293854
0.004194475978562698
0.0041541837413408686
0.0039028850966180647
0.0035227630560485863
0.003043814150683395
0.0025044460230677205
0.0019471976011532347
0.001414131211014564
0.0009422926401427554
0.0005595554414803145
0.0002811944499317825
0.00010764703727833475
2.388815829480383e-05
8.464550082310765e-07
-1.0530836845018704e-06
-2.648115011664231e-05
-0.00011863322623281854
-0.00031250977830204704
-0.0006291671492987662
-0.0010719159308177028
-0.0016251130233137015
-0.0022556876792792463
-0.002917164092113119
-0.003555555581173872
-0.004116207298108103
-0.0045506831455641595
-0.004822712081082362
-0.0048482468130903395
-0.004349813724624886
-0.00328019351351743
-0.002025081360315086
-0.0009807137407059864
-0.00034026960951525015
-6.375873439460231e-05
-1.2669990742977106e-06
4.409559469310389e-06
5.875233481080714e-05
0.00013586145588939625
0.00014497932197657243
-0.0004035969649547002
-0.00044072724589258843
-0.0003374257930926695
-0.0001644777067755772
-4.32400838187397e-05
-2.00638434165582e-06
1.6502398672408006e-06
5.2259064658633925e-05
0.00024049193486144738
0.0005768410532165095
0.0009296252931428091
0.0011031830922995556
0.0010904973011220647
0.0010121344309631734
0.000902817352853666
0.0007712942818704813
0.000627748335235354
0.0004827824481706907
0.0003464737556141033
0.00022748936413551557
0.0001322487947802377
6.414004272908265e-05
2.288831579675841e-05
4.225135557490701e-06
4.297030135495375e-08
-8.36952125535651e-07
-1.1268597492461465e-05
-4.3896736223819594e-05
-0.00010907274060812112
-0.0002129504413946737
-0.0003561404975409376
-0.0005332228551088291
-0.00073321849804871
-0.0009409673013689717
-0.001139161919223452
-0.0013106648746630792
-0.0014407496336483314
-0.0015188982838057199
-0.0015059669497019899
-0.001262623901668003
-0.000798797722878817
-0.0003498691857737246
-8.506558009392709e-05
-4.369702281055077e-06
1.122847218943563e-06
4.415076276350959e-05
0.0001905017471581322
0.0004152649625433051
0.0005586428476176224
0.0005133489175984119
-0.0008454153572551515
-0.0009926360835057545
-0.0009396797992049388
-0.0007052934497653549
-0.00043004625959010083
-0.00020433345028828925
-6.336455871113921e-05
-6.835864031526626e-06
9.214654706585611e-09
8.671172134019702e-06
3.7244314347271525e-05
5.774848099008132e-05
5.7959073668212364e-05
5.2436754677906455e-05
4.560187924977108e-05
3.801985018035837e-05
3.0225262852782945e-05
2.269476361800031e-05
1.58416714719286e-05
1.0013175209001227e-05
5.474018568018421e-06
2.3667729634190736e-06
6.529306521057489e-07
5.0687067545986096e-08
-3.700672173470929e-09
-3.4248169739950007e-07
-1.980575686760054e-06
-5.955650715622513e-06
-1.3117384963465383e-05
-2.3911781982547656e-05
-3.8218074106392015e-05
-5.529033982769295e-05
-7.382945525634316e-05
-9.217575340315439e-05
-0.00010857913655564031
-0.00012148063200441273
-0.00012974133664169098
-0.00013277880301896812
-0.0001239800643616281
-8.070687563010196e-05
-2.3328790698824044e-05
-4.954402347833773e-07
3.890859522680419e-06
6.101150241850316e-05
0.00022881867647167454
0.000520215519938586
0.0008972452454788538
0.0012390695112835433
0.0013375172176590825
0.0011455456389561302
-0.001380730266352717
-0.0016930205834756954
-0.0018045673218076992
-0.00166826397772072
-0.0013823050087782506
-0.0010357183636503721
-0.000688360224247053
-0.00039113691074437726
-0.00018537513523574816
-7.603724845220273e-05
-3.223658640002344e-05
-2.019215147211164e-05
-1.8612772679125954e-05
-1.7996541080189366e-05
-1.6708642555119677e-05
-1.4818856517145552e-05
-1.249347280633693e-05
-9.963943782175356e-06
-7.477517823392523e-06
-5.246167381115618e-06
-3.4104842713808447e-06
-2.0267810843844913e-06
-1.0767790028850142e-06
-4.91203001340204e-07
-1.772395741709754e-07
-4.1248045422031536e-08
-2.8174891437773234e-09
1.3843509978028654e-10
1.3009583002151098e-08
6.977415554343157e-08
1.9915770823868106e-07
4.295528196736107e-07
7.912146051965075e-07
1.314720311714616e-06
2.0253852686544355e-06
2.9343216048499955e-06
4.0285545969812825e-06
5.2637030361061736e-06
7.4389540588209065e-06
1.7381830449536413e-05
5.825082666239454e-05
0.00017709684103010338
0.0004256704317598816
0.000812600157819125
0.0012924972576683366
0.0017983573194743836
0.0022441156097469284
0.0024935829039253506
0.002382232893961081
0.00195656238139778
-0.0018955843331756247
-0.002391185636724587
-0.002749056124071736
-0.0028772795969287217
-0.0028054934183884615
-0.002576397367470352
-0.0022228719024193024
-0.0017920742245983751
-0.0013639423212140917
-0.0010201424299989452
-0.0008014721333340209
-0.0007063513231976658
-0.0006705775170237429
-0.0006263934948797135
-0.000562486293881851
-0.00048360328130067317
-0.00039607372805315453
-0.0003069375037811977
-0.00022295373772413394
-0.0001496879675617745
-9.08561140199524e-05
-4.800598507500272e-05
-2.054388069940053e-05
-6.038707500458474e-06
-7.107972692831401e-07
4.860010315470792e-11
8.750671448630339e-07
6.427335251238148e-06
2.0514939949036096e-05
4.605785316761257e-05
8.483735971490713e-05
0.0001373518315555485
0.00020270949005405482
0.0002785711205409012
0.00036118621943826356
0.0004455763228643991
0.0005259231201645222
0.0005961609520015439
0.0006656160915416891
0.0008077918905505721
0.0011056582324992447
0.00157888250999804
0.002190434530216676
0.0028383793731950064
0.0034093256085611914
0.0038264264491904955
0.004028755289749942
0.0039355521098922725
0.0034772040290805654
0.002776049742404814
-0.0022701249437135774
-0.002918317556389121
-0.0035306302708052206
-0.0040079810428303945
-0.0043219813742441295
-0.004458890995971972
-0.004401393610937577
-0.004153059035653391
-0.0037746695616328626
-0.0033745017464292624
-0.0030542763263831
-0.00286673476872668
-0.0027287019264784647
-0.0025270617170451643
-0.0022506318369404196
-0.001920392366852064
-0.001562022612636253
-0.0012026950357732374
-0.000867739099165472
-0.0005777070536441191
-0.0003462466857843644
-0.00017896970677271385
-7.33452936938987e-05
-1.9477966758562263e-05
-1.5862081442985612e-06
5.0966217140846347e-08
6.908428098518948e-06
3.999409098910847e-05
0.00011776177078826832
0.00025427306419654696
0.000457681576430914
0.0007291045497746175
0.001061953339422528
0.001441877033314659
0.001847488541405778
0.0022520089277597135
0.0026258816635229953
0.002940098129836052
0.003200766701251312
0.0035428538332449556
0.004076456969889891
0.0047420883219501065
0.005406330539460088
0.005912466238759086
0.006158340824349488
0.006119526440602895
0.005802572495153294
0.005208557526050218
0.00436115765414077
0.003410705566401355
-0.0024195746976548903
-0.0031478949217160586
-0.003940898029583922
-0.004723750387448291
-0.005440509231255281
-0.006040107891992816
-0.006464879361418428
-0.006668992910773405
-0.006655696122454528
-0.006489101814691091
-0.0062592963426125366
-0.006031572347530282
-0.005741104626732043
-0.005291889225540353
-0.0046922520002477715
-0.003987766592820345
-0.0032320899107484377
-0.002480629722812106
-0.001784221280166677
-0.0011837062343045938
-0.0007059995546115392
-0.000361937084111172
-0.00014593133806234824
-3.723690975220232e-05
-2.572370112481896e-06
2.4122091871497064e-07
1.795816743672385e-05
9.723427845301e-05
0.00027990885008543633
0.0005985224744105916
0.0010723301738584303
0.0017041548150394745
0.0024783949972768797
0.003360762143331244
0.004300123604810477
0.005232792496492875
0.006089108758014955
0.006801631313909362
0.007346569443021216
0.007843331465599125
0.008376081952234079
0.00884728456294222
0.009115756446026031
0.00906749634490173
0.008673297034947696
0.007980581779119356
0.007060868384763067
0.005980667750096147
0.0048208858795917575
0.0037123281140678584
-0.002323049149040888
-0.0030411451681832936
-0.0038883026046611195
-0.004824719544504941
-0.005794954951731668
-0.006738541446148298
-0.007584244040741525
-0.00825897200807476
-0.00870993359157365
-0.00892220977710744
-0.008913225267146146
-0.008708677577254426
-0.00828418288300049
-0.0076119529157611275
-0.006729174156338188
-0.00570265451004372
-0.004609561251012389
-0.003528536646705335
-0.0025310391749403835
-0.0016739656547623929
-0.000994379950764107
-0.0005066460361776679
-0.00020198540801738367
-5.0186372489414717e-05
-3.0949027743707238e-06
5.218157991035301e-07
2.9130316487730622e-05
0.000151944776792259
0.0004321144184178944
0.0009198950996511991
0.0016462216267680537
0.0026172329206869257
0.003810535643723815
0.0051741686394414215
0.0066291571304461176
0.008076140748808592
0.009405880372012414
0.010512374596600987
0.011325877620043386
0.011876968463684096
0.012189239015252947
0.0121981359934869
0.011845209535511641
0.011120263229403732
0.010078928706479149
0.00882040109117926
0.007450780804896608
0.006066107970448646
0.00476227929917812
0.003625284455053703
-0.002026509753590015
-0.0026555061610421585
-0.0034281870949965606
-0.004331202949495408
-0.005322541510468236
-0.00635075099098727
-0.007353112661685214
-0.008256926783741257
-0.008984125761829873
-0.009462041435686783
-0.009636921230889469
-0.009483124227189688
-0.00901059972292038
-0.008257645888048155
-0.007280550876379591
-0.006152872222856622
-0.004958791109324348
-0.003783470916685106
-0.0027036874065591065
-0.001779953575300353
-0.0010509625598791915
-0.0005307332272672207
-0.0002083598081478205
-5.000582710711565e-05
-2.6540624093095207e-06
8.568005993213227e-07
3.586810757659528e-05
0.00017923935212655416
0.0005021371877780952
0.0010624725179220317
0.0018973189380246701
0.00301607888420224
0.004395358794954651
0.0059769817672463265
0.00767034502427333
0.009359872592334709
0.010917345776139016
0.01221753894362958
0.013156386741782216
0.013668079788569501
0.013719615542623603
0.013309481649236943
0.012480231568326118
0.011314947463917696
0.009922250233810903
0.008417149662966836
0.0069069564998912565
0.005485276755327377
0.0042347746878135615
0.00319823703912188
-0.001618457808169515
-0.0021120502725189756
-0.002724097167173019
-0.003452067377302751
-0.004267283446904221
-0.005132159177347445
-0.006000536945847543
-0.006816075909882902
-0.007508260068623052
-0.007995858553514727
-0.008203839822706022
-0.008086373626915078
-0.0076660356306364275
-0.007004380182568169
-0.006156440612378523
-0.005185604356154405
-0.004163859349409517
-0.0031635425423708
-0.0022493080155982156
-0.0014714741607753266
-0.0008614410931699356
-0.00042950243059393606
-0.00016488143469117772
-3.758474722751626e-05
-1.5689228028077838e-06
1.1956448143351108e-06
3.599901735970671e-05
0.00017005423673444045
0.00046649719068184354
0.0009777396549016642
0.0017384243015493197
0.0027587148193022907
0.004018959748741334
0.005467256642923634
0.007021220534835805
0.008574728531455035
0.010009401058146636
0.011209292079909667
0.012068297733035796
0.012479495030359014
0.012387489056786013
0.0118296704738964
0.010897614762604245
0.009707329549461982
0.008372590090108685
0.006993898425706699
0.00565881236398311
0.00444162528550245
0.0034022965648527557
0.0025581444745486196
-0.0011924764941214638
-0.0015418274353701934
-0.0019668224404053684
-0.0024647526124833875
-0.0030161936686312145
-0.0035954604816161436
-0.004171763560228518
-0.0047082670680139
-0.005158779548053735
-0.005469069802118417
-0.005588086163064295
-0.005484565131448694
-0.005176561055007659
-0.004709555114177582
-0.004122248199604321
-0.0034578200752655498
-0.0027646278537376214
-0.0020907187005163785
-0.0014785804732494205
-0.0009608298845385968
-0.0005573359839918454
-0.00027390415788953575
-0.00010238399087494356
-2.18686035073774e-05
-6.448493680243711e-07
1.3475798511206159e-06
2.9610421568155197e-05
0.00013164182208908913
0.0003527969911761799
0.0007314000743194801
0.0012933049178064358
0.0020465243078910235
0.0029768943280723318
0.004046018459062586
0.005192595641294248
0.006337651881321309
0.007393388332513316
0.008274340992351893
0.008901366100119113
0.009189657947810903
0.009096730047811377
0.008658456976197779
0.007951027280935587
0.007064682614650262
0.006083047580547739
0.005077200166219335
0.004108237867085944
0.0032275261607131816
0.002474523683241888
0.0018589831293697049
-0.0008169798683655857
-0.0010412898192821891
-0.0013010993002704543
-0.001590719584819945
-0.0018975724935932432
-0.0022055582697379917
-0.0024961432424108177
-0.0027491122781248254
-0.002942813847508128
-0.0030557641125868173
-0.00307064867401494
-0.0029791935473483895
-0.0027898415927613994
-0.0025215873661728174
-0.0021944767662218033
-0.0018315967838735377
-0.0014580558505657198
-0.0010983279937399788
-0.0007737605115053679
-0.0005005728425093528
-0.00028851591120146664
-0.00014023315704109147
-5.1225860343151334e-05
-1.0276690049979904e-05
-2.0202383281499142e-07
1.1152077395573076e-06
1.9356628878445608e-05
8.193035108546004e-05
0.00021552556235748823
0.0004430344101461956
0.0007800201709263709
0.0012312082946314216
0.0017877125776135545
0.0024258345918661646
0.003108089729089457
0.0037867233365344215
0.004409351700642851
0.0049257689554497944
0.005292373032101583
0.0054709736870966735
0.005444529710362109
0.005227726406716615
0.0048542268880132885
0.004367027311231412
0.0038100596834453973
0.003224211799690308
0.002646254481410034
0.002107387764106684
0.0016314163773358138
0.0012290615845078612
)
;

boundaryField
{
    "(inlet|outlet)"
    {
        type            zeroGradient;
    }
        "(front|back)"
        {
            type            empty;
        }
    "(top|hills)"
    {
     	type            zeroGradient;
    }
}

