/*--------------------------------*- C++ -*----------------------------------*\
| =========                 |                                                 |
| \\      /  F ield         | OpenFOAM: The Open Source CFD Toolbox           |
|  \\    /   O peration     | Version:  v1806                                 |
|   \\  /    A nd           | Web:      www.OpenFOAM.com                      |
|    \\/     M anipulation  |                                                 |
\*---------------------------------------------------------------------------*/
FoamFile
{
version     2.0;
format      ascii;
class       volScalarField;
location    "0";
object      nutCoeffs34;
}
// * * * * * * * * * * * * * * * * * * * * * * * * * * * * * * * * * * * * * //
dimensions      [0 0 0 0 0 0 0];

internalField   nonuniform List<scalar> 
1000
(
0.010204147047431443
0.008466800726136321
0.005046218992165107
0.0017009357169342806
0.0001382786111273716
0.00011034146073251024
0.0004828617703733283
0.00047521199937038247
0.00015015127431195342
3.4985509966661757e-06
0.0002588890155524219
0.0007860540864983145
0.001501015598612372
0.0025439235038360753
0.004038017503460329
0.006058519448576881
0.008646204817756568
0.011789499883218896
0.015410824572068327
0.0193610346028729
0.023424555319702018
0.027336179892029355
0.030807513945976337
0.033560166172537625
0.03535987058117036
0.03604662122789279
0.03555592901186028
0.033927434322981904
0.03129986208704499
0.02789283791610068
0.02397886789010836
0.019849520602969194
0.01578222493460656
0.012011573216832754
0.008709612165345527
0.005977097288381453
0.003845010870864504
0.002284896172095774
0.0011852791536245907
0.00038996593115128735
7.107936405967224e-06
0.0002111727577379284
0.0007484429068247055
0.0009424396677042799
0.0004692877652561751
2.516302929589376e-07
0.0008670895702660568
0.0036904156788215574
0.006888230333569358
0.00854603086277384
0.012840014845440178
0.011376586430099136
0.008088506375866932
0.003956155045297733
0.0010053237646535673
9.666757164386704e-06
0.00032152627378323505
0.000801197218067606
0.000763830489401904
0.00036579824114818483
6.097200287065718e-05
4.067713893115644e-06
0.00010673944014130003
0.0003907702033977897
0.0009581321808910531
0.001906560157217645
0.0033134111970967274
0.005214449236662437
0.007585632633457153
0.010332556716462195
0.013291028647077752
0.016240329537420613
0.01892762473239112
0.021100592218913923
0.022542309782544866
0.02310280251400836
0.022721610969284396
0.021437085345955
0.019380799413195825
0.0167579354977497
0.01381729318172685
0.010816003298097046
0.00798623433940019
0.005508273496917046
0.00349487332768136
0.001987837328586726
0.0009656993467379445
0.00035947246326334923
6.0008513774832274e-05
2.6768124211676953e-05
0.00039324499668396074
0.001015478542892422
0.0012922081732339205
0.0007986919026047202
7.365487814053744e-05
0.0004086543123608548
0.0027953758430845363
0.006678410301949272
0.009892000816379164
0.011279420650460172
0.014265647512290055
0.013284582963487057
0.010853191516500866
0.006893631375331589
0.002943147033750274
0.0005396273526457026
2.3229779934493854e-05
0.0006487097816585661
0.0012948822486656582
0.0013766708243066529
0.0010803421849936285
0.000798433035631052
0.0005987491903043532
0.00037202854800785345
0.00014550748319867415
8.827301543152681e-06
5.89837467979996e-05
0.00037908434704771806
0.0010168068163747385
0.0019677809718841597
0.0031683419087734123
0.0045001265084572166
0.005806352658385224
0.006917237341937521
0.007679506743251317
0.00798425111867274
0.007787298099270457
0.00711763460696576
0.006071992542357737
0.004796579954367646
0.003460007749603329
0.0022231320532800905
0.001212557420287106
0.000502864582390343
0.000110610154832577
1.626132058997787e-07
9.853685489133377e-05
0.0003150102485778448
0.0005971653609517119
0.0010436025288269833
0.0016091512687525743
0.0018058620867043402
0.0012101996663369872
0.00024437570062340523
0.0001550635495628248
0.0020041678313851246
0.005690179539860938
0.009630555640089394
0.012036217463806922
0.012903532261570193
0.013944238579210259
0.013468126061381876
0.012338135005498026
0.009600023304714642
0.005686707585819002
0.002167046963086383
0.0002507611650988195
0.00014656631319607839
0.001094578092425418
0.002056098540329582
0.002576663873583274
0.0028564092661108515
0.003075985854080574
0.003102792554161765
0.0028821059281997196
0.002451173239509304
0.001885135457712264
0.0012804168279435953
0.0007332456205514321
0.00031870710681937225
7.549525177653878e-05
2.920258972252978e-08
5.1220127257683647e-05
0.00016447145611841928
0.0002712214850466616
0.00031887876977591394
0.0002858302074528425
0.00018740982637070963
7.110181928682201e-05
2.2374638450927003e-06
4.417909654414684e-05
0.00023864011693224135
0.0005917496283936557
0.0010697663074039215
0.0016054996865242275
0.002113378343633377
0.002508889630108318
0.0027271467233796597
0.0027901118569278556
0.0028229883121698713
0.0025887076830450597
0.0017028170590728778
0.0004726436712082799
3.8564987728485684e-05
0.0014522330278392529
0.004723201702272669
0.008637571233121642
0.011435537250762249
0.012503734391261099
0.012818134985430382
0.011857807102185595
0.011720726029222903
0.011832531305567145
0.010906746902161998
0.008225516162547715
0.004653046997055334
0.0015932688255426253
9.30642796995485e-05
0.0003280121552239766
0.0015835605193462484
0.0029918672121667326
0.004206333225958444
0.005263444998545404
0.006093388887309606
0.0065916259968024
0.0067159388360066566
0.006482790044989485
0.005958770890608556
0.005242846310982695
0.004444532847153324
0.0036635691517187172
0.0029756498448170335
0.002426784885723596
0.002036114764905426
0.001804898803075744
0.0017275416331041084
0.001800281821518708
0.0020242307152050403
0.00240150345897806
0.0029259989954155655
0.003572542709231082
0.004289250665165253
0.004997091991210416
0.005598579157088579
0.005994424009453807
0.006104021871798275
0.00588439919330137
0.005342126801630241
0.0045498655098799145
0.003546966736288192
0.002183591836584074
0.0006881911254233311
2.599887498956682e-06
0.001091373624833355
0.003963536868404189
0.007558219981237707
0.01032652679109889
0.011260617099983342
0.011031592566057546
0.010981416295387294
0.008587523710559875
0.008537236532534558
0.00936583715499676
0.010038684503112535
0.009228186281077693
0.006848764072360464
0.0037710572095964985
0.0011853596648567005
3.0355113325986876e-05
0.00044486548545197193
0.0018062595817621848
0.0033885218471464726
0.004898635967582741
0.006279643390894594
0.00740639078024054
0.008170512186354954
0.008528649219571277
0.00850143173439137
0.00816052205418075
0.007608351454184596
0.006956338301031241
0.006306534200301602
0.005740138748195488
0.005313561197157456
0.00506057154188648
0.004997348609354186
0.0051267648405171375
0.005439347697295991
0.0059102726677286
0.006494070022346609
0.007120585590414128
0.00769611316023205
0.008112235788441929
0.00826256092733534
0.008064339816782234
0.00747962242585269
0.006529862511405088
0.005299017809945903
0.0038861161907484407
0.0022942134092766744
0.0007418644306126774
1.8620635277879473e-07
0.000876306808661476
0.0033744703575609345
0.006520661908421996
0.00899223625373127
0.00981801159157074
0.009068450659939848
0.008099724082798758
0.007972320319004425
0.005099547735540331
0.004949812133870712
0.005815367045352103
0.007203482110831277
0.007923328459500169
0.00730616996901641
0.005446075908602993
0.0030000951173262853
0.000934644738363415
2.4424511950304454e-05
0.00032789747774373884
0.0012909051307211383
0.0024195255066927117
0.0035652639660472343
0.004591053569174446
0.005367898006810707
0.005827739566781294
0.005965398060409969
0.005827839398232154
0.005495394034665177
0.005060791378295942
0.004611193932396171
0.004216728160935756
0.0039263020766044715
0.003769208465002979
0.003759310631865809
0.003898347642303753
0.004176029446810248
0.004566684575443659
0.005024525885333755
0.0054811228690367945
0.005848815646083368
0.006031945543236571
0.005945374957435322
0.005536394691785777
0.004804183581360906
0.0038105387969914026
0.002677190241811355
0.0015258846410424675
0.00046671988769075157
2.917443216318433e-06
0.0008004263713467447
0.002894336175276799
0.0054672830813536685
0.007427551027368982
0.008041294904445068
0.007228251155588225
0.005718210296534331
0.004729461020861356
0.004738400661177109
0.0023129792576560156
0.0020471022825845338
0.0025096861651493036
0.0036388417503007498
0.0048322086953432744
0.00545898721960991
0.005175651085178624
0.0039884114867577685
0.0022998255598615895
0.0008211739594093156
8.268815503113334e-05
4.880706073119598e-05
0.00035690970321879605
0.0007832819955677773
0.0011931800091637944
0.0014847236697132836
0.001608372909609834
0.0015653278417740802
0.0013945075990686485
0.0011535049324039402
0.0008996377474804217
0.0006762743617233745
0.0005072567766778708
0.00039929071526146145
0.00034959116152504546
0.0003545137333979318
0.000414943114014084
0.0005358859127933526
0.0007203270076478448
0.0009601251085693991
0.0012284067170453667
0.0014779574474402075
0.001648235186481644
0.0016806908809814947
0.0015387537267215073
0.0012265467158601492
0.0007998355276576331
0.00036425629492085833
5.125639843964227e-05
8.347844803586446e-05
0.0008627070343241042
0.0024632145138731277
0.004313274631191132
0.005599881077075287
0.005860525089712213
0.005113512980294807
0.003773666497829842
0.0025292080096616133
0.0019819852938234954
0.0021562121695665923
0.0006871050834745692
0.0004378666128636733
0.0005052722588517471
0.0009319573135857221
0.0016369456267678033
0.002388571547361004
0.002914692195700956
0.0029765832276136554
0.002461670214962326
0.001571746622590193
0.0007407247930327505
0.0002524172910566302
5.7165460827847384e-05
4.104945258414364e-06
7.027373106202074e-07
1.2049354968949902e-06
1.006742171414744e-06
2.56376814910388e-05
0.00011144543059029385
0.0002847682131014737
0.0005463294078271099
0.0008655965608976039
0.0011865751378952773
0.0014429333102834922
0.0015773572505397976
0.0015588170386857502
0.0013920115743642643
0.0011158769419783454
0.0007916114163762965
0.00048419274963087093
0.00024356563932166384
9.183203263143054e-05
2.0867831364394236e-05
1.300080477103883e-06
5.119861838292907e-08
6.423705325688346e-07
1.924275385073909e-05
0.00011041876318313423
0.00037082067695609676
0.0009629941545466792
0.0019404464126494196
0.0029739718174510497
0.003556498787135633
0.003448146919459282
0.0027896416790871323
0.0018816242170781536
0.0010506616245381424
0.000549903841847064
0.0004431380473278898
0.0006500682018062004
8.442573245444721e-05
1.775735011483112e-06
3.3631400272594556e-06
9.195097575534207e-07
5.4111421734820065e-05
0.00022618688579215316
0.0005106312388945936
0.0008271650543471613
0.0010149543686297769
0.0009502294341230184
0.0006995477494000815
0.00044466645408034947
0.0003009894423587122
0.000268497362164079
0.0003345887123030904
0.0005233953548601903
0.0008862759505306007
0.001477497182366674
0.002326220344916863
0.003413470865051302
0.004661481075748666
0.005939334089191563
0.00708432386081028
0.00793411309359313
0.008361340555302079
0.008301799396104939
0.007768559971278645
0.006848417001995822
0.005681693514192351
0.004430979202179697
0.0032472900421124016
0.0022423186126560193
0.0014737843119667841
0.000946475853916914
0.0006274568071917441
0.00046980614856973753
0.00043704856308130055
0.0005206351682390433
0.0007421230299337184
0.0010949890294490562
0.0014273438102893072
0.0015065767715100762
0.001246302391362165
0.0008023795266209554
0.0003878217551751779
0.00011812192007248343
1.1821255258759277e-05
4.5596229231513934e-08
4.80438695041985e-06
8.6601144254455e-05
6.834484513866226e-08
0.00010514800601303213
0.0003398404598467458
0.0005083368726138131
0.0005189056067023001
0.00040378741032112095
0.00022957780779574548
7.603196952381636e-05
5.701902837829998e-06
3.961128500809232e-06
1.3379355546081734e-05
1.15914889335357e-05
1.4918644735677053e-05
5.13619083841048e-05
0.00018428394585962208
0.0005185695527988568
0.0011731393451008842
0.0022417468960534565
0.0037552849028708738
0.005656327645031534
0.007793806266249002
0.009940762935601822
0.01183204411491189
0.013213860474935257
0.013893532822388048
0.013777901021010794
0.012891247551863482
0.011368845401979128
0.00942795475845173
0.007323657396862667
0.005300039598661204
0.003548026251448225
0.0021790116419737604
0.0012188869984435108
0.0006219155338526496
0.00029917438340572484
0.00015275053754529097
0.00010625793678928278
0.00011600438876118161
0.00013342037031674746
9.987339841411134e-05
2.8008125773012732e-05
3.074169579106227e-06
8.419411254641312e-05
0.00023204587654998522
0.0003611698005813179
0.00038863350401852976
0.0002680984249488792
7.862565873845536e-05
2.2823138200083476e-07
3.931219146948337e-07
0.00014032517085672358
0.0005851262969290913
0.0012311882328891563
0.001856471656028694
0.0022957357603490694
0.002443420622247998
0.0022747714920699985
0.001903695131736037
0.0015186272712613598
0.001239203398019683
0.0010740146057678986
0.0008788304171280335
0.0005515715671349151
0.00019635696841127518
2.6903678960829827e-06
0.00016957553316538458
0.0008529136393827034
0.002118442220577081
0.003912758035769452
0.006060849711294995
0.008292113272760802
0.01028971156515045
0.011752329509480667
0.012454211726729628
0.012289917985161493
0.011293963672496432
0.009631417482068876
0.00756228851309691
0.00538827715238122
0.003394205796474442
0.0017967140244734682
0.0007112150798485275
0.00014273222047275967
1.0403008739141348e-06
0.00013472412872749738
0.0003746669264230849
0.0005760097989572765
0.0006740593200418888
0.0007689330160795641
0.000985216406591823
0.001326549662553562
0.0016976116784667011
0.001922340404554406
0.0018736877786235408
0.0015496063331605805
0.0010336839681171284
0.0004799891176777951
0.00010308985822622312
2.4273471746652935e-07
6.5912082080481e-05
9.756538400451136e-06
0.00032006649248233257
0.0011456012821322349
0.0023626795881997098
0.003728743772985419
0.004968736797946629
0.005824854817339411
0.0061780467792606755
0.006121071685410712
0.005853735458016254
0.005524142775808089
0.004983218044305828
0.004044175614790535
0.002827702861433903
0.0015837261103668406
0.0005812270026899964
4.8013839283155956e-05
0.00011701341835491556
0.0007927180473264229
0.0019467214990396538
0.0033441002861106886
0.004694575967370384
0.0057164596459967605
0.006198225593406886
0.006043645694251919
0.005290641292643528
0.004100358384492004
0.0027197785475464036
0.0014269903211858522
0.0004716432028920359
2.3649818418750573e-05
0.00014110746560405874
0.000763533480289362
0.0017308532908163555
0.0028226649826408106
0.0038078940220249934
0.0044931971605027335
0.0048165694468867
0.005001905960298488
0.005207377929304355
0.005285559297772225
0.005027015667793542
0.00431634937680861
0.0032428240070606403
0.0020376293082925313
0.0009591423680562748
0.00024171904338592896
1.6860769423975452e-06
8.863412249074412e-05
0.0006021257407521588
0.00021087956969984567
2.4551651186154277e-07
0.00035095176332745323
0.0014119828543435998
0.003086172301660021
0.005137077493541025
0.0072285922887681
0.00900258650675145
0.010220379379482225
0.010831197603268535
0.010905020383314156
0.010403776324986513
0.009247709709051852
0.007564863987755323
0.005605029318283559
0.00365590878090289
0.001985017817523487
0.0007856246905967634
0.0001400676583323832
9.582760700488524e-06
0.00025290771459125354
0.0006685132313488677
0.0010494138321322224
0.0012366989490045787
0.0011588116652222662
0.0008476396591520487
0.0004283856342697651
8.642598486621785e-05
1.9553341314147586e-05
0.00038697358320219854
0.0012669474191484961
0.0026327138893881717
0.004352084531823777
0.006210612586622028
0.0079527133914894
0.009331285895464756
0.010154390684342896
0.010357243878738378
0.010079028203509558
0.009385210442601594
0.008194333648524846
0.0065266459172138545
0.004585611317813932
0.0026993435693970585
0.0011818583544034825
0.00025461080371201567
3.3750045092872158e-06
0.00026786564622875665
0.0006685413736571407
0.002118640736923063
0.0014660604149496041
0.0006304005290804427
5.804053735483093e-05
0.00014059518719251234
0.0010172532051972933
0.0026548159879595536
0.004868355109217513
0.007310649736864048
0.009541590725931956
0.01117746981833707
0.012002656606441878
0.012022537973678787
0.011326863836482402
0.010024722855820628
0.008296493959563958
0.0063749996848556905
0.004499774267620883
0.002871144476567069
0.0016154427072922514
0.0007698098033531724
0.0002895705164313362
7.514860869510119e-05
1.0295981834367386e-05
9.183147743059436e-07
4.149917094222099e-06
4.044030257227915e-05
0.0001861095784315155
0.0005488423225580827
0.0012327556741081236
0.0023020637543238304
0.003752749624356178
0.00549949559657014
0.007381824816475021
0.009188403634092054
0.010694296753311974
0.011702605557470656
0.012081009113591036
0.011771140162044662
0.010733708337941992
0.008994671336198279
0.006764818384587434
0.004401659174098996
0.0023132867249293794
0.000818063334316982
7.762701294793093e-05
0.00010659769771398123
0.0007498592927751977
0.0016039710252025927
0.0022298554392604607
0.004805508776768369
0.004163668454631923
0.0029957093866607135
0.0016410940220654463
0.0005565771677242007
2.6051088195507645e-05
0.00020119917964970285
0.0011184392906411964
0.0026496520800757505
0.00446787742075152
0.006130403146130771
0.007248516773519013
0.007750435035787922
0.007748286992622861
0.007291176259293638
0.006457022355640019
0.005374815790911326
0.004197058013573203
0.0030685674019627165
0.0020997721112892796
0.0013511176296203712
0.000831838622648801
0.000512182719682782
0.0003443722363007056
0.0002854706974942847
0.0003152272961229549
0.0004438214104461766
0.0007075440041207642
0.0011539155401342296
0.001820654713299498
0.002714667700234416
0.0037972838156487454
0.004980516930863537
0.006136288869044035
0.007117174449140866
0.007783997835935065
0.008033727820475378
0.007820849346846006
0.0071278796708639435
0.005872789960086142
0.004152601407737178
0.0023586280195301884
0.0009147507718796817
0.00011866609958002887
6.910313016373865e-05
0.0007056246514872985
0.0018581667015312984
0.0032295757411507134
0.00435956968149938
0.004925460118773107
0.008293610520015107
0.007994085372855656
0.00701434429420548
0.005515179423960488
0.003846408821631972
0.0022803637172445204
0.0010228140801227658
0.00023424530801212202
1.6498125639730348e-06
0.00026964031211091456
0.0008247747852033695
0.00138382559848639
0.0017961609582946025
0.0020530737002414042
0.002134916091541358
0.0020391040835034792
0.0017969809172138057
0.0014632044263570322
0.0011005158511365278
0.0007644375541981375
0.0004921331358808831
0.0002981777033133112
0.00017762781567756707
0.0001145109306911173
9.235564750967044e-05
0.00010298396227067333
0.0001506079989449971
0.0002499210034885736
0.00041886129350447374
0.0006684858945427684
0.0009933944597919455
0.001366204077705244
0.0017384624213445106
0.0020486014429745483
0.002235312573470112
0.002252967443294882
0.002084779805819182
0.0017498897795657057
0.001282939609110248
0.0007079482362807777
0.00018841729097321224
3.2564258586600083e-06
0.0003455225416858056
0.0012434071596232527
0.0025856922383479656
0.00419496891563296
0.005855331840904762
0.007291370521245701
0.008162856529169624
0.008332820968592702
0.011748190872623146
0.012010908396999392
0.011656342352845815
0.010700291882320646
0.009317466676601995
0.0076732746301875
0.0059208111585395285
0.004219356935338104
0.00273535365445241
0.001597791750781848
0.0008449905560458918
0.0004192568564315646
0.0001960291713822194
8.099024512110674e-05
2.925773394945305e-05
1.0603326710731919e-05
6.068173618927569e-06
8.164647656209543e-06
1.753501292616394e-05
3.780747509902332e-05
7.07285714665181e-05
0.00011327098915120965
0.0001575053710384829
0.00019294288828566262
0.00021019541078593683
0.00020440014713864863
0.00017703746268375945
0.0001354237542536614
9.005890702093496e-05
5.0856935800419653e-05
2.3781671184268698e-05
9.372518883489987e-06
4.054406998389888e-06
4.0924442941981845e-06
1.0991604963152456e-05
3.6362584271112965e-05
0.00010416559174970528
0.0002488887644755118
0.000518289437942942
0.0010106046061327163
0.0018489703289649528
0.003077275663316193
0.004637608865515964
0.006382616412935165
0.008133633642554532
0.009725969894622023
0.011006774458770454
0.011817653222143084
0.01200232356602524
0.011568694986043532
0.014226398202452181
0.015058732320322411
0.01545108363328821
0.015349282533573823
0.014784862187656934
0.013813070855179264
0.01250828908898153
0.010971696546238729
0.009336608998430392
0.0077515225562454675
0.00634394360072019
0.005189724172039207
0.004266744873021232
0.0035222143356551583
0.002939643578609037
0.002504277021216524
0.002195615917855969
0.0019915190209153916
0.0018706555115565278
0.0018133901135778837
0.0018017363104659945
0.0018190567838724616
0.0018501525605258127
0.0018819179725696827
0.0019044835375874878
0.0019124103593213613
0.0019055115328214967
0.0018889799161428788
0.0018727575417780743
0.0018704613377893604
0.0018982548260797088
0.0019741163867553076
0.0021176216738375974
0.0023500412971910255
0.002694102808224695
0.003172670044104237
0.003805792021624998
0.004606100242349466
0.005586555260870038
0.006795446573505966
0.008245954932763776
0.009849756001343161
0.011468785965098939
0.012948603315101668
0.01415488423515416
0.014989156634934386
0.01538301475021739
0.015291956237728522
0.014702359251147134
0.013685966573296425
0.015081328032683427
0.016294454448305174
0.01722128811002925
0.017795543717110018
0.017981250229928903
0.017771578610559537
0.017188606503319295
0.016282366238654193
0.015127793946284853
0.013817041628047352
0.012446738013735822
0.011103705538236239
0.009843595575781731
0.00869820740746073
0.007692807976686476
0.00684009268666855
0.006140174461368006
0.005584185181359068
0.005157733364891346
0.0048436718590709
0.004624161847961951
0.004482065664121136
0.004401942344888419
0.004370813841731191
0.004378869034520432
0.0044201089018708
0.004492838771232248
0.004599960695244501
0.004748937985019445
0.004951433514544558
0.005222596118565009
0.005580063461088374
0.00604256244288464
0.006628049395538391
0.00735123728992558
0.008220450799240043
0.009234032417455774
0.01037673695679104
0.01161999692755916
0.012927900077019978
0.014239961318708052
0.01546581767073974
0.016507875586900683
0.01727576971208364
0.01769838987273942
0.017730797423182725
0.017357226700942238
0.016592551131193293
0.015483244781432063
0.014105449520162159
)
;

boundaryField
{
    "(inlet|outlet)"
    {
        type            zeroGradient;
    }
        "(front|back)"
        {
            type            empty;
        }
    "(top|hills)"
    {
     	type            zeroGradient;
    }
}

