/*--------------------------------*- C++ -*----------------------------------*\
| =========                 |                                                 |
| \\      /  F ield         | OpenFOAM: The Open Source CFD Toolbox           |
|  \\    /   O peration     | Version:  v1806                                 |
|   \\  /    A nd           | Web:      www.OpenFOAM.com                      |
|    \\/     M anipulation  |                                                 |
\*---------------------------------------------------------------------------*/
FoamFile
{
version     2.0;
format      ascii;
class       volScalarField;
location    "0";
object      nutCoeffs42;
}
// * * * * * * * * * * * * * * * * * * * * * * * * * * * * * * * * * * * * * //
dimensions      [0 0 0 0 0 0 0];

internalField   nonuniform List<scalar> 
1000
(
1.0281952861432515e-06
1.4761021794035028e-05
0.0001912028027271989
0.001050052196551376
0.0029309534633143045
0.005403261337206099
0.0075919228436999095
0.008720826920518378
0.008617560482846153
0.007830365870725917
0.00708426496002921
0.006804631468247669
0.00675558193503431
0.006473867928257478
0.005876640142136384
0.005024863961665144
0.004014030629042064
0.0029590561011879346
0.001974825004949263
0.001156044516066924
0.0005605366101906487
0.00019953738252316726
3.734077591642514e-05
5.064243010140302e-07
-5.233292851811858e-06
-7.418339916276743e-05
-0.00028064337097516976
-0.0006639140718574485
-0.001221284953799284
-0.00190991826221895
-0.00265652399302888
-0.0033723714577663
-0.003970106019295277
-0.004379227040992435
-0.004557296198472135
-0.004495106227343826
-0.00421540582481356
-0.003765976745414835
-0.003255973709727011
-0.0029044833399356194
-0.0027147173975341755
-0.0024265729919572144
-0.0018275285115337096
-0.0010023387398817468
-0.00031415159589579856
-2.2274710858273152e-05
3.7463371733603275e-06
0.00016947426761718308
0.0005055709390916409
0.000618572252250754
-9.326312771096916e-06
-1.0730561055571758e-06
7.896898001061175e-06
0.0002673328725770849
0.0013646438014521954
0.003521794155854762
0.006300856746032754
0.008832213644713371
0.010346800091405853
0.010782794839957744
0.01070285077670464
0.010679484192168374
0.010627727966815766
0.010147542000257298
0.009182416379355827
0.007829231936141623
0.006237139831167358
0.004584479837453869
0.0030489179589425204
0.001776371423462096
0.0008550471739880349
0.0003003409583997792
5.436652359421962e-05
5.725815021930862e-07
-9.401841386064862e-06
-0.00012269679268785754
-0.0004534958708198504
-0.001059596550579363
-0.0019321025737919918
-0.002999607707735874
-0.0041448429659083925
-0.0052294255716782145
-0.006120567027083815
-0.006714620752779444
-0.006952910864669784
-0.006827761496371252
-0.006378728354039042
-0.005680922649140523
-0.004858974970509514
-0.004089080149553421
-0.0033287675577895978
-0.002391337693388415
-0.0013166553293035925
-0.00044217570748362344
-4.518729999130333e-05
6.686149133594729e-07
0.0001435838959994243
0.0006802397778822595
0.001208397652012839
0.0012554385262728506
-0.00013493047602212074
-8.860114124367302e-05
-7.348755955821116e-06
1.039805979718134e-05
0.0003292092084435894
0.0015296060854135276
0.0038266285486979524
0.006831065087860681
0.009672284590589735
0.011637090843563852
0.012673666749884618
0.01310951153355628
0.013047708265018276
0.012383776338623144
0.011142027245266509
0.009446086359787319
0.007479912903316476
0.005460021121097639
0.0035997735077578858
0.0020722094649611444
0.0009789273474907151
0.00033220266128269736
5.5076224718469926e-05
2.5822887175283906e-07
-1.5722539501893734e-05
-0.0001708697667331183
-0.0005983009755105887
-0.0013582104752637436
-0.002427288732576293
-0.0037070280050465567
-0.005047492029971609
-0.006280093568388804
-0.007251035519175182
-0.007848550237410388
-0.008018991008723395
-0.007770022858462963
-0.007162311873838837
-0.006293002986118673
-0.005263977293040603
-0.00411863796229435
-0.002844879829520388
-0.0015461957670031559
-0.0005291458837090371
-6.009871225154193e-05
1.935515592533283e-07
0.00012577991185977192
0.0007138807149663639
0.0016232201470396327
0.002138885521859422
0.0019974154337988118
-0.00048083528784801966
-0.00043646546455398445
-0.0001873788657338644
-1.1263458601505631e-05
9.465880490563127e-06
0.0003081480661991809
0.0014425765050441002
0.0036675728689752394
0.006605538401582297
0.009392052486712937
0.011326306654726224
0.012168376157425193
0.012100033504933178
0.011393685035858902
0.010166532530421773
0.00854140026135135
0.0066934863497289864
0.004824212433440627
0.00312811283821546
0.0017587156399108627
0.000800450845311554
0.0002532912111930576
3.477557013661296e-05
4.683132289975937e-09
-2.411879434798892e-05
-0.0001984049451709873
-0.0006345213272822852
-0.0013707776008633028
-0.0023661409724527955
-0.0035128606200572838
-0.004663267156089876
-0.00566319959604753
-0.00638338533835945
-0.006742210890180598
-0.006715948689675257
-0.006336249357712393
-0.00567756321697868
-0.004838818808730383
-0.003877695942550688
-0.0027263269326954775
-0.0014836749766731492
-0.0005041040493764104
-5.3541307419238836e-05
4.6355697683183516e-07
0.00014149265187691395
0.000770523986399848
0.001849717849629474
0.002806091339568908
0.003006873725142588
0.002596937356645955
-0.0010063454402795408
-0.001052093741891718
-0.0007370440152475879
-0.0002655362182478379
-2.2133617962837653e-05
2.6598728277224034e-06
0.00019971883796702768
0.0010818205571884803
0.002873396668346287
0.0051513237209148575
0.007076734709026233
0.007969285046401962
0.007920271743625938
0.007383601571073901
0.006510776307948911
0.005391833050510577
0.0041496225767004855
0.0029209955537928566
0.001833648543007596
0.0009829404019939068
0.0004137511832397624
0.00011209771787927242
9.469291676480522e-06
-2.1585049404046238e-07
-3.452506319006109e-05
-0.0001936953523919952
-0.0005365383229767622
-0.001067308275143603
-0.0017366846491882826
-0.0024558683578104964
-0.0031192299049985685
-0.003629097965191239
-0.003916136227127951
-0.003951109260142064
-0.003746365468122348
-0.0033483611594625163
-0.0028244391285555085
-0.0022478581248211366
-0.0016412078669468771
-0.0009392788400817714
-0.00030934056893849784
-2.3298479930836872e-05
3.736634004617196e-06
0.0002083228652099034
0.0009423577129944305
0.0021327178202688118
0.0032897536542935237
0.003782506570530009
0.003448275745916088
0.0027966784395726603
-0.0015360246752196068
-0.0017412050843973988
-0.0015671223964622537
-0.0009991740866801585
-0.0003996342709467158
-6.38482496940641e-05
-1.068325765239791e-09
6.781776121355922e-05
0.0005355097915864687
0.0015140400230923997
0.002587461489468381
0.0031432061840663906
0.003131506491271504
0.0028796220863072258
0.002491213007960705
0.002009803561643282
0.0014921854996987694
0.0009988459102658177
0.0005826939935706138
0.0002784781672549551
9.55360248480602e-05
1.609073578023801e-05
8.713955912453835e-08
-4.216300767436516e-06
-4.643946672810648e-05
-0.000160775987355254
-0.000356962096865579
-0.0006180613179726092
-0.0009056268808568529
-0.0011704785921221338
-0.0013657742603142191
-0.0014586004961441663
-0.0014369798089516996
-0.0013109400926609232
-0.0011080509339582748
-0.0008653700290719887
-0.0006203998258508601
-0.0004034900941286149
-0.0002192403377260801
-6.058125404822831e-05
-4.517343747654313e-07
3.0374444229514957e-05
0.00037286706145305535
0.0012897065084544815
0.0026134160361487133
0.003837453335059957
0.004407810228839462
0.00407464691513921
0.0032293273205286745
0.002477767702507696
-0.0018570018733096987
-0.0022206496288775576
-0.002343342638992778
-0.002022115190307916
-0.0013702566781455688
-0.000679849529433088
-0.00019724957159725974
-1.2954047322848131e-05
2.043656963750272e-06
8.970876710883146e-05
0.0003044122606623442
0.0004531075127408771
0.0004589250368910826
0.00041106889135209153
0.0003398600519335707
0.0002554433510418725
0.0001703172557028461
9.657682061662731e-05
4.293514859896306e-05
1.2364396308267049e-05
1.1721769480010128e-06
-1.273889350540581e-08
-3.4391739000187442e-06
-2.0345648601834082e-05
-5.7168170964714905e-05
-0.00011310346829930491
-0.0001799250256809524
-0.000244214623372083
-0.00029137149751388487
-0.0003101036336345338
-0.00029592712453984824
-0.00025250969077720355
-0.0001904412769381425
-0.00012387861281835586
-6.621847963411608e-05
-2.623006880184565e-05
-5.8445050387674275e-06
-1.9284774729589147e-07
4.830999400878494e-07
2.2052756429116642e-05
0.00018786759499309292
0.0007562938047027615
0.0018881625403016987
0.0033364684574292477
0.004543394981031368
0.005017712355742735
0.004575603928855752
0.0034859660387251234
0.002412927050342273
0.0017527628889564533
-0.0018372311776254494
-0.002283780847317733
-0.0027037696449831367
-0.002843865341576531
-0.002563085167201225
-0.0019478284675041849
-0.0011977666764109757
-0.0005433489387061835
-0.0001543703785412178
-1.995293830694342e-05
-4.231814010337305e-07
2.2577465583268936e-09
1.4351082340019126e-08
3.181514849165038e-09
-4.082882966772849e-11
-2.7059779358635746e-08
-2.671020769267847e-07
-1.1717987782734033e-06
-3.4725324338199453e-06
-8.033619878178937e-06
-1.5523889067645558e-05
-2.5986336753678777e-05
-3.84767575495911e-05
-5.0977113774727815e-05
-6.072736995348805e-05
-6.497520777822478e-05
-6.195250496525507e-05
-5.1734562714529666e-05
-3.658443680413426e-05
-2.048087631015277e-05
-7.770641700837014e-06
-1.2137016243661017e-06
-2.65738035851751e-12
1.5269661197671918e-06
1.3786643983670404e-05
5.021544090910939e-05
0.0001240807290346905
0.00024460348438649416
0.00043161125743465805
0.0008093431908443001
0.0015921708524629992
0.002839488132346163
0.004269740508878435
0.005323567729180147
0.0055599967453592945
0.00490527659948241
0.003633861667052248
0.0022753836312300363
0.001353137357972855
0.0009224117914795966
-0.0014935915996875492
-0.0019134804058368565
-0.00248429247417373
-0.0030303653257521823
-0.003302376622634442
-0.00319122167101141
-0.0027169076408353663
-0.0020044953636710497
-0.0012729128263896032
-0.0007263887551433836
-0.00042489401522522374
-0.00031171096818369086
-0.000283255956529657
-0.00026813937887261473
-0.00025370064804211166
-0.00023996889644507439
-0.0002265688618508546
-0.0002127755324035095
-0.0001976244179423629
-0.0001800930053073226
-0.0001593582032371566
-0.0001351080666154642
-0.00010784816916546416
-7.90948268284673e-05
-5.133031269422302e-05
-2.7601920979177672e-05
-1.0707296510677752e-05
-2.004943704447358e-06
-7.544264108543197e-09
9.473984190133844e-07
1.155124726466826e-05
4.7461473405725006e-05
0.0001279521229996991
0.0002731276144038754
0.0004999193008081536
0.0008174966649534516
0.0012231239652236768
0.001699612056680868
0.0022518409695028423
0.0030302017421792683
0.004121959288696493
0.0052508513448402926
0.0059317881618951756
0.005802638292171871
0.004883842883317985
0.0034958997061795066
0.002075820800748181
0.0010208058061202372
0.0004894601406736783
0.00030290044860964194
-0.0009758879079415644
-0.0012821331785777402
-0.0018077708300000576
-0.0024992374070598434
-0.003152015820914055
-0.0035928367951937263
-0.003717403625705576
-0.0034940726775821757
-0.003000987210848641
-0.002427783144906608
-0.001967306672193284
-0.0017113659050203588
-0.0015751957995276344
-0.0014424285680337278
-0.00129474226008544
-0.001137757415318924
-0.0009764074319546956
-0.0008150452843481745
-0.0006577142127759096
-0.0005084768107421986
-0.00037163545159735314
-0.0002517042347136515
-0.00015302251323775012
-7.897341568734462e-05
-3.088328944499011e-05
-6.768728207437287e-06
-1.7350282893572246e-07
6.275784479940603e-07
1.2793776442987585e-05
5.822162356045149e-05
0.00016182371188999472
0.00034873404855366257
0.0006405513248250325
0.0010509917099657826
0.0015816214818985125
0.0022185142695326588
0.0029308732967349167
0.003672346832375098
0.004407263133007132
0.0051538773283472655
0.005783098054415757
0.0059544686946499375
0.005430580200891734
0.0043042922269567125
0.002920996478620961
0.0016414159472476026
0.000718037743326711
0.0002328859032883093
6.946736325299148e-05
3.33833601870269e-05
-0.0004818691723480889
-0.000647873879272721
-0.000995010629970009
-0.001554787867120187
-0.002233331692982345
-0.002907537026165612
-0.0034653538917285296
-0.003810116318134871
-0.0038830219419024505
-0.003718208801088393
-0.003437034568818546
-0.003156638778502863
-0.002881560577903048
-0.0025729275916083543
-0.0022361359264793726
-0.001887326135470825
-0.0015413953469150326
-0.0012115509132014516
-0.0009091168654644445
-0.0006434227579619898
-0.00042160987460159686
-0.00024821755945778117
-0.00012454092691902764
-4.7842429034030295e-05
-1.0646979050370131e-05
-3.599807775999973e-07
5.609319570713345e-07
1.3746147707055471e-05
6.334417072833557e-05
0.00017381401729088544
0.00036722240892564633
0.0006602544886838634
0.0010612032420566173
0.001567322724880486
0.0021630587125590424
0.0028196630563029523
0.0034966629138164233
0.004145396458862616
0.0047016355900398495
0.0050200827285618145
0.0048858753022148526
0.0042024664861658526
0.0031120398352356285
0.001942999272167789
0.0009857768422129936
0.00036885977424291476
8.027605099691882e-05
5.176741740592979e-06
6.532137285178876e-11
-1.2166972276862824e-07
-0.0001543152203004232
-0.000212825770466836
-0.0003659181518625686
-0.0006642056621977062
-0.0010996746892648216
-0.0016294521746327824
-0.00219790725096047
-0.002735362282766009
-0.0031486887620252387
-0.0033556960131680114
-0.003335135166816288
-0.0031205842213487774
-0.0027881481097252686
-0.002410279347334388
-0.0020186046214611935
-0.0016326755844103889
-0.0012692474029300355
-0.0009416923368988645
-0.0006597325640874701
-0.0004293713925553853
-0.00025288496280827775
-0.0001288066830905525
-5.1921304863375375e-05
-1.336408621794083e-05
-9.622938282916798e-07
7.185401869838777e-08
6.065240114179124e-06
3.3492824858197835e-05
9.741743933169427e-05
0.00020993685079516598
0.00037878718011375735
0.000606239289335783
0.0008883620471876941
0.001214781134484611
0.0015690504428948187
0.001929733286582431
0.002272251591643255
0.0025713855867067472
0.002776240793931841
0.0027197617502366595
0.0022786103088687343
0.0015771653347962996
0.0008654095646130947
0.0003512302077866472
8.684967849541151e-05
5.6777220714082606e-06
-3.9244901299188496e-07
-2.2710769431762453e-05
-6.52248026253489e-05
-7.223140266271106e-05
-1.9484905293714235e-05
-2.8135153170512743e-05
-6.153383423483839e-05
-0.00014746760903415514
-0.0003048544261309413
-0.0005370474385736448
-0.0008367454648881322
-0.0011830891682657997
-0.0015220080727623223
-0.00176651834450083
-0.0018379156900372757
-0.0017087486313723515
-0.0014604733800253223
-0.0011936456533477367
-0.0009391058643473426
-0.0007079954444453093
-0.000507935336695819
-0.00034313043270206415
-0.000214706119073421
-0.00012116050653785615
-5.8842235027816656e-05
-2.241593395671194e-05
-5.329406696160764e-06
-3.1421212437439146e-07
5.129503253083317e-08
2.7291773585425207e-06
1.3615155798989547e-05
3.7023781802237296e-05
7.534860175748034e-05
0.00012894355052186444
0.00019622015268088973
0.0002739226893568082
0.0003575176385717781
0.00044165628322637173
0.0005206821771241722
0.000589164074573366
0.000642421116233549
0.0006770042724470046
0.000676298446891028
0.0005737947442185225
0.000361614787903594
0.00014941134069383633
2.9041008839668057e-05
3.3389885522134905e-07
-4.367432790537205e-06
-5.521988392993382e-05
-0.0001875809249778653
-0.0003690323869492961
-0.00047454860096949643
-0.00042912904878674726
-3.498083434291081e-11
-1.2395093453770426e-09
-2.85400237807405e-07
-4.146989635877994e-06
-1.971334852618495e-05
-5.536539253009466e-05
-0.00011722896410187518
-0.0002074191885313591
-0.00031437403686389504
-0.0004042116875944773
-0.00043390864883474103
-0.00038250651012474183
-0.00029010489376599894
-0.00020407659430577072
-0.0001346341365086364
-8.21738411775054e-05
-4.537585027185756e-05
-2.180310982118318e-05
-8.456695059169476e-06
-2.2265508328648612e-06
-2.2270971015947375e-07
1.6500367817166235e-10
3.0148427309822735e-07
1.880352506392327e-06
5.264375062650445e-06
1.0367071354960332e-05
1.6617319320499957e-05
2.314862657587336e-05
2.901811111407082e-05
3.3411005490936904e-05
3.578933643817479e-05
3.596140328111628e-05
3.407068117578775e-05
3.052388263242371e-05
2.5886385830978904e-05
2.0770945838699584e-05
1.573943205470671e-05
1.1229525674716425e-05
6.803105808755322e-06
1.6289627631255152e-06
-2.0700487911105757e-09
-6.697919558886712e-06
-5.744375935151619e-05
-0.000195250950718383
-0.00043119884207309066
-0.0007421564531756688
-0.0010738165810113014
-0.001323512050711902
-0.00134700792851052
-0.0011339413968585353
1.4033282849585021e-05
1.760140170165326e-05
1.4348009163654162e-05
7.3263259674072445e-06
2.287218139331643e-06
2.75926265933837e-07
-2.793641388412804e-11
-3.5487807653848253e-07
-2.2449874258102862e-06
-4.952764232794543e-06
-5.461423771651094e-06
-2.7566792324387252e-06
-4.7674774718269004e-07
-1.9612637036628466e-09
1.272889916655109e-07
1.2883220918458255e-06
4.231313844298201e-06
9.010585112331938e-06
1.508200912285519e-05
2.150355433707906e-05
2.7176029063877897e-05
3.107849236129524e-05
3.247061866855974e-05
3.104466393431427e-05
2.7008716497966677e-05
2.1079114689601687e-05
1.4359847184955136e-05
8.105718879787585e-06
3.396002819743916e-06
7.84965722018056e-07
2.1526365787907712e-08
-7.215606487181214e-08
-1.5045464643285382e-06
-6.795540559607231e-06
-1.8482162661350996e-05
-3.853770397896603e-05
-6.781482899078141e-05
-0.00010562879750033283
-0.00015403961487971398
-0.000239283263027398
-0.000408504930645923
-0.0006963976291192789
-0.001105272902888598
-0.0015849547961530686
-0.002057013670044605
-0.002452038928319731
-0.0027082794201231746
-0.0027507233210026165
-0.002504458009297099
-0.0020352945500629674
8.9957431696851e-05
0.00011716937718197787
0.00013039746320584226
0.00012768473286964044
0.00011773839603263989
0.00010562728714356542
9.265280424266459e-05
7.956389415892561e-05
6.901950160055865e-05
6.502719513655473e-05
7.190094861224358e-05
9.537792805659666e-05
0.00013495033576553883
0.00018123589220973176
0.0002276163267857121
0.0002688236478757701
0.000299676180597156
0.00031596856608012697
0.00031518738797363133
0.00029694486398804533
0.00026308562382535057
0.00021748009354891117
0.0001655392408672285
0.00011348704550552417
6.742364111229088e-05
3.2237188001046056e-05
1.0469536304648698e-05
1.31785867596384e-06
-4.581963703204841e-10
-2.278078504550982e-06
-1.758117653987748e-05
-5.9723841077337684e-05
-0.00014210792819056302
-0.00027523807081008997
-0.0004643209120260246
-0.0007073694141782112
-0.0009942001694459768
-0.0013066070413199065
-0.0016341468454510548
-0.002029235275388721
-0.0025492839421985282
-0.003163811551061361
-0.0037856516917990322
-0.00430027149708435
-0.004619981035338635
-0.004709662308756281
-0.004564808048983312
-0.004185275269479749
-0.0035822415123642148
-0.002856944459573205
0.00022301006125823012
0.0002926341130201665
0.0003565139631636126
0.0004099911929237714
0.0004592047556253778
0.0005077571996190981
0.0005548776541056009
0.0005988204071147038
0.0006430517862962597
0.0006985222514888577
0.0007797148315797294
0.0008983615183671095
0.0010371927099668038
0.0011601939062155504
0.001248188780077783
0.0012900789358317717
0.0012789320188376643
0.00121323729355708
0.0010973951677010001
0.0009413858153450666
0.0007596904196383636
0.0005695908290575435
0.0003890274749557015
0.00023416836002091037
0.00011689923409532501
4.2485130752049274e-05
7.733778160600017e-06
5.130398845790069e-08
-2.239329039304545e-06
-2.8068128163685874e-05
-0.00011026700372340637
-0.0002809924959831493
-0.0005664983254897311
-0.0009820343087122857
-0.0015277043798712453
-0.0021860233438335303
-0.0029217601691157212
-0.0036843357424512966
-0.004426358711548678
-0.005155418890406862
-0.005872215671417686
-0.006497871461200979
-0.006932225706620017
-0.007093647181640209
-0.006953837861356204
-0.0065392957242402265
-0.005905105616922004
-0.005112228622760401
-0.004226123141249558
-0.0033396509378576435
0.0003601294521663015
0.00047106043446761914
0.0005939479959797295
0.0007273213473397553
0.0008755643065059825
0.0010407786559803762
0.0012206715655522517
0.0014102700785647965
0.001606601047677454
0.0018110605461014945
0.0020259907958728707
0.0022480934953816403
0.0024488993092105452
0.002589091033964651
0.0026472030583206936
0.002612455624051392
0.002482364533321046
0.00226365017292238
0.001971977073030332
0.0016305432257757795
0.00126766594737368
0.0009135901803098843
0.0005968112235631706
0.0003402371066316544
0.00015758704279759348
5.047322520840568e-05
6.6673215469640934e-06
-5.708665059989966e-12
-7.768720303479347e-06
-6.302648965900822e-05
-0.00021458348224037186
-0.0005067644593111905
-0.0009722060989355977
-0.001625437027686087
-0.002458269846276802
-0.0034378484317948927
-0.00450790504444235
-0.005593392018622589
-0.0066123694243412755
-0.007497802722257765
-0.0081842217073115
-0.008599159470064347
-0.008693933149708977
-0.008458171826299248
-0.007923171875826137
-0.0071530763201018656
-0.006229463735420216
-0.005237005058406457
-0.004256652387044279
-0.0033552046381065672
0.0004462936944608563
0.0005781033392728987
0.0007347224060074569
0.0009185689497065159
0.0011329850299868283
0.0013790690334934352
0.001654110475091866
0.0019514494676686005
0.0022612736294186616
0.0025707659083070078
0.002863087086614771
0.0031167964453985824
0.00330545146484995
0.003404818111801128
0.0033995912275908923
0.0032832583724408284
0.0030588404216561394
0.0027392369525732164
0.00234643524477147
0.0019095809001149673
0.001462076279563549
0.0010379353799017418
0.0006677240924774832
0.0003744960063424246
0.0001702070252776442
5.3115945813308785e-05
6.633140092729967e-06
-4.4575145375937596e-10
-9.03190909705833e-06
-6.95912073335847e-05
-0.0002315467948857517
-0.0005385088709609178
-0.0010208799690498273
-0.0016899689603719402
-0.0025341107202235176
-0.0035175115571265334
-0.004582250489705235
-0.00565343161228958
-0.006644895738446684
-0.007460422372037194
-0.008014429489679451
-0.00825862594665986
-0.008183767915874739
-0.007815208484309713
-0.007202545345332501
-0.006411376816654739
-0.005517361541481981
-0.004598130080628854
-0.00372499544530252
-0.0029436847112824967
0.0004571584239594865
0.0005835869590040975
0.0007353251998736506
0.0009152209147761451
0.0011248647220137354
0.001363720955472828
0.0016281640573509617
0.0019107640477250114
0.002199743385499187
0.00247883257393047
0.002728064672867102
0.0029259033987817503
0.0030540143917988666
0.0030992853420932762
0.0030529734015381175
0.002912862234958557
0.0026844799305450148
0.002381070389889119
0.002022703181513964
0.0016345605889277184
0.001244508965329016
0.0008801290736340686
0.0005655008527520979
0.00031809324658636985
0.0001461595476324836
4.701872528651924e-05
6.536265885391832e-06
3.273105728312176e-10
-5.556406191166699e-06
-4.772028409230655e-05
-0.00016405770554713176
-0.00038697051524989916
-0.0007386877065113048
-0.0012271035938447147
-0.001843140383934078
-0.0025601562060618877
-0.003335659495261662
-0.00411527872164869
-0.00483708473572338
-0.005433188116386166
-0.005844747989119972
-0.006038711551346449
-0.006007378060751616
-0.005765793672694538
-0.005346058785323933
-0.004792399834649125
-0.004157050911407576
-0.003494391822256839
-0.0028543125117040723
-0.002271121624632945
)
;

boundaryField
{
    "(inlet|outlet)"
    {
        type            zeroGradient;
    }
        "(front|back)"
        {
            type            empty;
        }
    "(top|hills)"
    {
     	type            zeroGradient;
    }
}

