/*--------------------------------*- C++ -*----------------------------------*\
| =========                 |                                                 |
| \\      /  F ield         | OpenFOAM: The Open Source CFD Toolbox           |
|  \\    /   O peration     | Version:  v1806                                 |
|   \\  /    A nd           | Web:      www.OpenFOAM.com                      |
|    \\/     M anipulation  |                                                 |
\*---------------------------------------------------------------------------*/
FoamFile
{
version     2.0;
format      ascii;
class       volScalarField;
location    "0";
object      nutCoeffs29;
}
// * * * * * * * * * * * * * * * * * * * * * * * * * * * * * * * * * * * * * //
dimensions      [0 0 0 0 0 0 0];

internalField   nonuniform List<scalar> 
1000
(
0.00672787868647624
0.007066787994118508
0.005628457942330915
0.00222278494401033
2.3737523463222767e-05
0.0017602126703602403
0.007225626389972722
0.013973380942910398
0.019032833914104232
0.020988800422655746
0.020507916062718463
0.018873648071195487
0.016566870129680934
0.01360677317904783
0.010268865945691954
0.006942599312041755
0.004012564261338894
0.0017884509193678356
0.00044718697980519745
8.975125094420666e-07
0.00029904908801503153
0.0010651973423685846
0.0019608497405231764
0.0026628445386926423
0.0029372521238835085
0.0026936551965337572
0.00200758590977847
0.0011058520575659004
0.00031744907338557336
5.422027032898612e-07
0.00046157106351584127
0.0018844279402787125
0.004285394004291093
0.007503449032794824
0.011227235140443135
0.01505095334696732
0.018546131915480532
0.02133300282670721
0.023153557474494987
0.023867002072880145
0.022824429547973507
0.018904419004674787
0.01218458084386226
0.0050478390470031186
0.000626907262321351
0.00041930024448058617
0.0032694016005620475
0.005936329837453117
0.006330723056548749
0.005616575454306477
0.006372271247706128
0.007427388065035991
0.0077516947210376766
0.00556401557681904
0.001935365599055144
6.491426634833736e-06
0.0017821015275968275
0.0069363508214489306
0.013084272521070707
0.017513961075508934
0.019123420174388624
0.01831677897809042
0.01600076521777362
0.012882569793855653
0.009406312458591215
0.006009087308814285
0.003121824275643477
0.0010886171774540964
9.881913698367201e-05
0.00014814599621418124
0.0010392829564758513
0.002423749438450288
0.0038770430054406043
0.004991475397714546
0.005466135228960729
0.005174040625681835
0.004191118483146229
0.0027802962854882145
0.001333926572114067
0.0002875954120559912
2.466719251054287e-05
0.0007928994974261839
0.0026514595988571857
0.005458756396248972
0.008901933036364959
0.01255886037881951
0.015977242966664282
0.018752908952600074
0.020448383782756322
0.020155162637174498
0.01698400754761602
0.01118745505930414
0.004748810328123935
0.0006217264768307221
0.00035107424540399524
0.003034218001385487
0.006022213620380582
0.006783547828719068
0.005553471502945982
0.0043700482236475454
0.004398973670156819
0.005755552589338042
0.0076585954891792455
0.007969212236778624
0.005500863633062473
0.001972042577591918
2.8996504224450402e-05
0.001333343915953713
0.005455255847415959
0.01006343077473605
0.012858856679746093
0.012999188024292636
0.011305736756341037
0.008869670943804494
0.006174500132841366
0.0036051805332634784
0.0015442211033166572
0.0002969258660376049
2.637044147588088e-05
0.0007140287874244556
0.0021570784128783272
0.004005523934714118
0.005832725054753488
0.007224997677829596
0.007870186173032506
0.0076252101652438805
0.006546824097724779
0.004878379042455935
0.0029956584147942476
0.0013245413406605961
0.00024981151458939406
3.5635195470123025e-05
0.0007753354115591842
0.002379645969289593
0.004603658097619663
0.007103046192910947
0.009504923640688128
0.011476657964683858
0.012564592732842945
0.011601387759055485
0.008045763678728654
0.003437392691808813
0.0003584319258997472
0.00047174181208800467
0.003117127433593077
0.006068354908785139
0.007070471118780463
0.00554595011734768
0.0033900331519687316
0.002240496267931723
0.0018314273424379674
0.0029279258299253403
0.005350915599459128
0.007822443544571277
0.008051762487209685
0.00570210791049238
0.002350347563927672
0.00017505917760437712
0.0005460847544866013
0.0028550513949373844
0.005101856563832953
0.005743672440110985
0.0050264074392837605
0.003820911313131488
0.002470862118145059
0.0012225293659805885
0.00032960727452552
1.0828822758803316e-10
0.0003465626280717418
0.0013541928241635138
0.002872881608498757
0.00464074547608511
0.006333647296556978
0.007631492323669616
0.00828586149875037
0.008173243577901671
0.00732090624512475
0.0058991959117630334
0.00418225798554547
0.0024871115925179494
0.0011060198586283986
0.000248032744793687
2.9651461906538326e-06
0.00033408531916537617
0.0010988107399983408
0.0020896034965140267
0.003083416279741754
0.003887450566056991
0.004221056316436591
0.003349454372815573
0.0013748091564679654
3.3172886016515466e-05
0.000848503390289644
0.0035293393220787155
0.006249516184560345
0.007189925686137605
0.005702624689369076
0.002963787440500909
0.001068873084241186
0.0004315484014255096
0.00014118981758295374
0.0005536609797971459
0.002190719899599874
0.005187994198207809
0.00768785130399156
0.00803117547493484
0.006085358209141504
0.0030459912685256037
0.0006834525325151729
2.6894058268930444e-06
0.000445847888837242
0.0008263288101193424
0.0007884351661637127
0.0005801551943388734
0.00031678402861722835
8.845875188589767e-05
5.635902879035025e-07
0.00014859283516998408
0.0005915512400975219
0.0013309525980972643
0.002301807685696245
0.0033793792484699
0.004401374188730575
0.005201129321608512
0.005643634450953911
0.005655415862695228
0.005240396183695817
0.004477611149651279
0.003501594475082143
0.0024708229444219834
0.0015328015242666746
0.0007946344831172932
0.0003063196515467643
5.9510234763707204e-05
4.1896484425903245e-07
5.165925326141837e-05
0.00013601772258495134
0.0001956434687592651
0.00017399406740131181
1.945559594838903e-05
0.00022793452562166103
0.001650647223884298
0.0041809187077159774
0.0064583257935601655
0.0070666552557318695
0.005584280934598326
0.0028537143999537253
0.0006351725370843768
1.4585945244219064e-06
0.00010857492633452563
0.0005188827046210264
0.00014497808080446805
0.0001477813708835861
0.0018166021203566514
0.004678809186112062
0.007057963951904765
0.007703984331022856
0.006389892420754892
0.003970803531637239
0.0018088204798122158
0.0006336070025591751
0.000235882514724258
0.0001253028860958062
8.192144929934005e-05
6.889398996717472e-05
8.04012365265171e-05
0.0001203061898281828
0.00019938988226451935
0.00032934681419715246
0.0005155732730669447
0.0007513065299538303
0.0010153833658903752
0.0012747308219778562
0.0014911762704805905
0.0016305887130550602
0.001671542757807415
0.0016107138368643486
0.0014633260248222027
0.0012586033859995852
0.0010318597493788047
0.0008159624470063749
0.000634952339771731
0.0005016888320695698
0.0004197785414526203
0.0003884193937067775
0.00040778691386695335
0.000482504288352587
0.0006216751647154521
0.0008748076574304193
0.0015140752925918827
0.0029057213360702237
0.004860986038643203
0.0064187961520882405
0.0065268079827805366
0.004972244904119048
0.0025002041761914124
0.0004679157369240261
8.114278081958826e-05
0.0010408177292683827
0.0018147613569883495
0.003257149743702666
0.002314535088888364
0.0006706700235370177
2.5261924866449113e-05
0.0012677679913076971
0.0036285295478974194
0.005812197263595731
0.006782745541766812
0.00620538503286658
0.0046625247709659355
0.0031073757338028174
0.0020506867142763563
0.0013650827862018164
0.0008520528280384493
0.0004795254471365143
0.00023350457726222895
9.008910760650366e-05
2.1361012425529106e-05
4.929638064357803e-07
5.25849697019754e-06
1.966988142375123e-05
3.394176609444906e-05
4.3324182961560365e-05
4.6460381412088455e-05
4.3832613236503464e-05
3.665519062742744e-05
2.6361751987809008e-05
1.469660578192127e-05
4.348559361505177e-06
4.244207069898402e-08
9.911817483569175e-06
4.681809438610082e-05
0.0001290676024641045
0.0002798538161294665
0.0005248458569186459
0.0008877414327094372
0.0013842859879583734
0.002015987682110991
0.002788066465351506
0.0037967345126579577
0.004976733331941787
0.005738372072669025
0.005385577202478311
0.003834681741259896
0.0017730781524321474
0.00024554829975815385
0.00021134958855231447
0.0018862238916146504
0.004056591013314169
0.005210677003987223
0.00756245992443337
0.006428506998573636
0.0038469334023030245
0.0012004286765899973
1.9951257260090786e-05
0.0005621020066726023
0.002205336879578383
0.003999005991095447
0.005043498520209581
0.00496763024076128
0.004100208345505858
0.00299220080825042
0.0019523782660536804
0.0010893360657205566
0.00046160817762357244
9.884330704930531e-05
1.7267319876657283e-06
0.00014376474675054527
0.0004761365420312407
0.0009347474661446016
0.0014483822342247282
0.0019468134634342484
0.002367905315382748
0.0026630529827089875
0.002800663766414456
0.00276774605724791
0.002569913648524438
0.0022301750723257995
0.001786846250239485
0.0012907152422244575
0.0008014356966063211
0.0003829226801894178
9.771178597032669e-05
2.7202600474446995e-07
0.00012983473287178851
0.0005036762940301143
0.001112135512129223
0.0019167541047125022
0.002835249367657794
0.003662468848004599
0.0040337774973599255
0.0035873139679585653
0.002337328417211127
0.0008756849663469469
3.081832150664301e-05
0.0004696529581073794
0.0024379520410462074
0.005415774848334603
0.008027584202759364
0.009244764289608187
0.011894230634684342
0.010896985558393411
0.008336195333986041
0.00491139997242265
0.0019660323538830122
0.00030888022394959903
5.793427713988742e-05
0.000839858819781184
0.0019485158237420458
0.0026448574911924045
0.0026031857828361727
0.00199037560374385
0.0012148702571169213
0.0005580791705674088
0.00013145100713131454
1.6898982197326677e-06
0.00020489010963312533
0.0007395409773000583
0.0015641389742146287
0.0026001701849708517
0.0037403999541323965
0.004861549168697842
0.005839524518058804
0.006565141941740951
0.006957822572046049
0.006975472626863674
0.0066191497672063735
0.005932089603462209
0.004993461100056915
0.003907933689976145
0.0027924657494257793
0.0017620544555998201
0.0009162042138054742
0.00032759328705574554
3.4331044423476244e-05
3.677062126585345e-05
0.00029924924450859894
0.0007565967181601949
0.0012991962359821582
0.0016572268599387842
0.0015127703868166576
0.0008773550223337969
0.00018085651417515562
5.7851631612447056e-05
0.0009745933334919574
0.003065385954318965
0.006058130161484662
0.009211208325080367
0.011548216221245161
0.012626191621056961
0.014661048489969478
0.01394204722380957
0.012100356646747735
0.009193991715855396
0.005903309084879541
0.0030131057227029126
0.0010275909279229992
0.00010660743202612411
6.109477459349532e-05
0.00039556502697992476
0.000608401516306904
0.000516593698453663
0.000282303296957262
8.273338785284177e-05
1.0636334722222231e-08
9.896343399212675e-05
0.0004309058539519775
0.0010218692787366526
0.0018633405783241759
0.002907838094176303
0.00407096766505282
0.0052404273116527355
0.006290878149003908
0.007102402669184742
0.0075791076036263024
0.007664404231993825
0.0073500144195440265
0.006676966470756069
0.005728460615376296
0.00461607639159328
0.003462020949757235
0.0023806429552377093
0.0014626588384658507
0.0007644830518170715
0.00030419234688562917
6.429784312068163e-05
7.636137238899198e-08
5.1459330288341554e-05
0.0001478449347305908
0.0001726092692285364
6.005612228389075e-05
1.7172113578281384e-05
0.0004445742895268661
0.0016600363029223766
0.0037165858289850235
0.006405648654433807
0.009279370775270775
0.011757789739593698
0.013446563623433598
0.01434268212870768
0.014919571857201332
0.014429451260222674
0.013487264902085835
0.01177992856275234
0.009312962341578253
0.00652767817209246
0.0039346292503465614
0.0019224828444087266
0.000685898259908644
0.0001466541470894644
1.0817996281583526e-05
3.135452041096915e-08
1.0021754078972559e-07
1.5869962190882557e-06
1.8698250759597646e-05
7.743299351530492e-05
0.00021057643153699513
0.0004491033131480123
0.0008120416851719202
0.0012974595419476796
0.0018773019639909984
0.0024981089108852676
0.0030881554641290923
0.00356992657012301
0.003875168496343848
0.003958975743056597
0.003809351776205205
0.0034498243705190423
0.002934355979290873
0.0023358663381093455
0.0017312193926966259
0.001186432239780842
0.000745686378224133
0.0004265203834959937
0.0002218660656155624
0.00010778774983139435
5.430260519509532e-05
3.608128202133399e-05
4.2258344468863665e-05
0.00010118877183601338
0.00033251020641411605
0.0009505590606157567
0.0021485783939745534
0.003950537077279086
0.006187720676597837
0.00854797213815767
0.010639393937726333
0.012169384254100342
0.013214240857677641
0.013994937119209792
0.012729298645478048
0.012329646851582773
0.012032932378681298
0.011432826564643169
0.010136360810892017
0.008236020024891532
0.006064407376379048
0.003980940391880824
0.0022807390795238688
0.0011231533684451297
0.00047467191850167047
0.00016836661808188757
3.841812564318043e-05
9.041652579716724e-07
7.037354764872456e-06
2.060359415691127e-05
2.260008957162546e-05
1.197486315456991e-05
8.595446283001786e-07
6.2153906272013124e-06
4.084131939307962e-05
0.00010678759211066976
0.00019330853210903782
0.00027990036938405977
0.0003431891523918203
0.00036509347598231615
0.00033926194802904393
0.00027336350147721044
0.00018634851031030562
0.00010162323678322158
3.866728594088932e-05
6.298055831867268e-06
3.4311291779881607e-07
6.941675845979853e-06
1.0680284557721824e-05
4.8941173304465755e-06
4.7237922704985885e-07
2.9737457383165562e-05
0.0001428104725158729
0.0004099264029678735
0.000951063221321145
0.0018891937753740583
0.0032549267361789425
0.004948833052019325
0.006766787397094159
0.008434904147009651
0.009691821934152777
0.010473937525054496
0.011100805395678147
0.011849426326601232
0.009017380006592206
0.00860530291791073
0.008556734768123573
0.008535368045288209
0.008066318481941686
0.0070558273638356315
0.0056622072031706295
0.004119752069493613
0.0026504219300027246
0.0014406010485305083
0.0005995434777684539
0.00013437764961298147
1.7484221696106265e-07
0.00012027560502425475
0.0003869164725738466
0.0006948373371871451
0.0009614365223751909
0.0011370656075976404
0.0012063460136414956
0.0011817890705086112
0.0010928437348142793
0.0009742034680865172
0.0008566750610312151
0.0007624192138582739
0.0007045054178583078
0.0006891478227570674
0.0007182582454616754
0.0007903013963846175
0.0008987131370355079
0.001028814413380476
0.001155453446021614
0.001244020128760498
0.0012565618035282383
0.0011628572750387119
0.0009540271000956768
0.0006545117264790857
0.0003278262498751946
7.26817807808468e-05
7.743199426207305e-06
0.00022415027127851552
0.0007591792108441264
0.0016161773985929834
0.002737367153263773
0.004009608195726948
0.00527491101473318
0.0063389659951567714
0.007050098938934933
0.007453018792498956
0.007904373840451522
0.008648185969571209
0.005079547148529836
0.0046556965528489185
0.004586676636054903
0.004652938497127205
0.004499815603737389
0.004011615854969542
0.003252773041970652
0.0023521144124302187
0.0014383071120622403
0.0006502711094388108
0.0001359715172754856
8.798376396976022e-06
0.0002957100186640164
0.0008876038703447091
0.0016212574416267413
0.0023463139881192293
0.0029482301728028775
0.0033612901383741367
0.0035695890572701146
0.0035979886284058862
0.003497169541787878
0.003327600764676805
0.003146466662131233
0.002999727064307388
0.0029192488373922395
0.002923222308583214
0.003017342980479879
0.0031947023367183483
0.00343388935548509
0.0036965531053365303
0.003927105748138425
0.004057417375892573
0.004018044631214923
0.0037552476658836227
0.003250151101805969
0.0025346734472612618
0.00169835974031247
0.0008821755356410317
0.0002645286607580956
4.720590086684783e-06
0.0001300426563052371
0.0005741854553849093
0.0012375359579809835
0.002016342246166983
0.002800277622271362
0.0034621908607487305
0.003911909830587991
0.00420247526635043
0.00460296682448707
0.0052933804559484885
0.002012442780083479
0.0016656238055182784
0.0015362849860157642
0.0015056655641432816
0.0013982903939764022
0.0011591043859724742
0.0008248234592177242
0.0004662491821748688
0.00015960693620232586
3.0739312170121e-06
0.00011638923911992292
0.0005868378419410864
0.0013680637080155645
0.0022781094144208687
0.0031391138189070947
0.0038178064979099515
0.00423669517717442
0.004378843265275521
0.004279317444848577
0.004007498459903228
0.0036462536828641015
0.0032738124921511042
0.002952283092335928
0.0027240255739046128
0.002614212483137706
0.0026360401221410352
0.0027946765287481536
0.0030871695643347767
0.003497854113298326
0.003991394361330984
0.004507515817061358
0.004961805255222251
0.005255479659481893
0.00529412066867029
0.005011705269996932
0.00439370942456585
0.003492049204463933
0.002426205615933539
0.0013786525200220464
0.00057205663147799
0.00012223354334339634
5.070346743178697e-07
0.0001229305310798918
0.0004029241748959205
0.0007625921368102077
0.0011205417693084118
0.0014138380421037725
0.0016575767625390816
0.001994559583594715
0.002538750602108852
0.0003508790056961345
0.00018941341651913948
0.00011479551002232532
7.618575520941482e-05
3.78172632491369e-05
5.313119521230561e-06
7.896845936347257e-06
8.185709980870347e-05
0.00027014200255574925
0.000626594108488962
0.0011919135277765464
0.001940090968205412
0.002716463651291109
0.00332983908130914
0.0036675867310449134
0.0036882782428024207
0.003415583023809632
0.0029256200758073793
0.002323161498421134
0.0017139476555216064
0.0011810075833416482
0.0007710923342708845
0.0004939676737680339
0.00033314725429725497
0.00026324413240659
0.00026727686904395924
0.0003475693117700242
0.0005262010898439034
0.0008345801652429631
0.0012955638614682928
0.0019044407987505567
0.0026158997054547416
0.0033427398182381616
0.003968494971923296
0.0043718103334390475
0.00445635767854898
0.004178066824181446
0.00356175649628224
0.002708454901242806
0.0018091713976699602
0.0010540121421507827
0.0005174003605200431
0.0001903733763960617
3.2348721824965166e-05
2.3224626959713288e-06
5.8280465301020354e-05
0.00015792082100763726
0.0002830043859977741
0.0004739208168530178
0.0007897537882697474
2.1112641287388844e-05
0.00010405086787793352
0.0002109282833037717
0.0003270002454459322
0.000479354899911291
0.0006919259991513471
0.0009743441927992536
0.001326430187219709
0.0017486236719321778
0.0022344074622199354
0.002739654194768603
0.003157376078400015
0.0033329935637793455
0.0031811881967783932
0.002722091719395779
0.0020471355630421063
0.001296040544863162
0.0006243900499472368
0.0001660312797698739
2.0810767901651457e-07
0.00013234719505069884
0.0004938710175205435
0.0009612554982719087
0.0013893820787262486
0.0016503849438812437
0.0016677148981831585
0.0014364585692167996
0.001024550512713723
0.0005545798429907073
0.00017102102447427562
1.6241205174537187e-06
0.0001231656839366366
0.0005405903590091976
0.0011847985084257541
0.0019293011210910365
0.0026209279838543087
0.003116306376629898
0.0033147370564621773
0.003178930944373851
0.0027641829868342207
0.0022161320664789907
0.0016626586332191297
0.0011705936304625502
0.0007631528352329114
0.00044851236083089265
0.00022851461665825845
9.230967978340933e-05
1.963150687566265e-05
1.5446330280064035e-06
6.147195159974605e-05
0.0005440452525823584
0.0008511733573372579
0.0011753723062811066
0.0015108983752971203
0.0018813439734075355
0.00228853319010349
0.002708688196938409
0.0031034474459356526
0.003430364263943673
0.0036373104948636457
0.0036520380343959187
0.0033941877142371663
0.002829235110107351
0.002032093764773915
0.001161151760408029
0.00042073906104753107
2.3983077484392658e-05
0.00014649149875665588
0.000882516328596144
0.0022147348605097267
0.004006261083289768
0.006018432396720854
0.007951786798039906
0.009501896029067217
0.010418106278241508
0.010552359738630978
0.009887502649016245
0.008539097417020653
0.006730770586207815
0.00474882862155764
0.0028865208459168553
0.001389862197285453
0.00041656779335021474
1.5495662517671942e-05
0.00012943437519716763
0.0006184485107452812
0.0012968096615746437
0.0019743532201496215
0.0024895397755715257
0.0027398393197128673
0.002728639955945089
0.0025254826964423737
0.0022030817717257184
0.00181870183861491
0.0014189827683735287
0.0010443729775488427
0.0007213585557076094
0.0004553547129532152
0.0002379805019660474
8.021114272515896e-05
0.001330810517907894
0.0017777286689631229
0.0022488491981544913
0.0027285940000697155
0.0032060999954387293
0.003648787830008751
0.004005078051341905
0.004215480248757737
0.004222533588527848
0.003976843837376972
0.00344967888384098
0.0026596494544583343
0.0017106799495260096
0.0007951789540334398
0.00015243467550908656
3.344440898930928e-05
0.0006559654852924999
0.0021551533077214646
0.004542971909149995
0.007686816897219641
0.011314319368966862
0.015045703522509373
0.018448927590402776
0.02110756682578735
0.02268841226527871
0.02299572813498514
0.022001921286385676
0.019849128191637175
0.016822226938957078
0.013299083307085565
0.009688415949675374
0.006366835361691482
0.0036266915860820965
0.001642756038907642
0.00046180586096251686
1.4364822549266596e-05
0.00014363911612460864
0.000644338025627349
0.0013008519889410055
0.0019178178411400073
0.002366715989923917
0.0026008891346208755
0.002625922150582218
0.0024750086431727597
0.0021952045197714313
0.001840398243595495
0.0014611186154185197
0.0010930971912391206
0.0007537869343756644
0.000460914212265587
0.0019242205864752667
0.002403337755012232
0.002896391235896776
0.003372060268521498
0.0037905592443537367
0.004101053494149612
0.004247589178529785
0.0041787481100462095
0.0038588760091764966
0.00328151459006362
0.0024859788950444143
0.0015728730061436642
0.0007112985903089696
0.00012223180825042407
4.7474177110292435e-05
0.0007144811120189016
0.0022928510987008377
0.004852022877695014
0.008330483990709393
0.012524804316548288
0.017103156200330906
0.0216428901782981
0.025686616668287653
0.02880701794716115
0.03066891988667012
0.031077526671063345
0.030004678326973587
0.02758905881590159
0.024111515221062845
0.019950437230248697
0.01552603652313083
0.011242951224729627
0.007440499569865753
0.00435756443230626
0.002115845013912692
0.000721763674304148
8.426461283590304e-05
4.350930740896272e-05
0.00040412574215078985
0.0009656544416209263
0.0015532199583729546
0.002041842373984997
0.0023604594085446296
0.0024850446305563064
0.0024273028214281647
0.0022232026894577874
0.0019210667316824548
0.0015696230511156653
0.0012092970150373587
0.0008721244125790163
)
;

boundaryField
{
    "(inlet|outlet)"
    {
        type            zeroGradient;
    }
        "(front|back)"
        {
            type            empty;
        }
    "(top|hills)"
    {
     	type            zeroGradient;
    }
}

