/*--------------------------------*- C++ -*----------------------------------*\
| =========                 |                                                 |
| \\      /  F ield         | OpenFOAM: The Open Source CFD Toolbox           |
|  \\    /   O peration     | Version:  v1806                                 |
|   \\  /    A nd           | Web:      www.OpenFOAM.com                      |
|    \\/     M anipulation  |                                                 |
\*---------------------------------------------------------------------------*/
FoamFile
{
version     2.0;
format      ascii;
class       volScalarField;
location    "0";
object      nutCoeffs23;
}
// * * * * * * * * * * * * * * * * * * * * * * * * * * * * * * * * * * * * * //
dimensions      [0 0 0 0 0 0 0];

internalField   nonuniform List<scalar> 
1000
(
0.028050549732350036
0.03222374929068373
0.034545602676827235
0.033178039428035135
0.028624020606336682
0.022513202442713116
0.01620183748423876
0.010661730800465383
0.006502461973691359
0.0037979257963867918
0.002194934491255379
0.0012553115946765906
0.0006156112761590178
0.00017363358390379323
2.9255823027082106e-07
0.00016027007651048743
0.0006720852890768044
0.0014988826809673342
0.0025487453888361155
0.003685501532777615
0.004748632560079281
0.005578980618649453
0.0060455325772679055
0.006068412006276269
0.005633887874537515
0.004798938983531507
0.0036847198276996704
0.0024603966265447827
0.0013197427207351097
0.00045409901040040874
2.5394086018994714e-05
0.0001426919608586936
0.0008456239570733107
0.00209701202571017
0.0037863028138631336
0.00574362403491519
0.007762905493213
0.009630555275807641
0.011318362473282918
0.013592602240568021
0.017405779814997382
0.022916049080838264
0.02952064786768358
0.0357347728943309
0.03984691654137396
0.04058102819326425
0.037267458897837384
0.030527478906447914
0.02329107969396533
0.01820703741712127
0.02677512359892799
0.03138396795009854
0.03554907499026742
0.03683567296816388
0.03443929765667239
0.029368360987092373
0.022956893222517226
0.016451338614162363
0.010910297158792407
0.0068618383219575035
0.004201317370997215
0.0025101309469623134
0.0013040042937289252
0.0004331503236365576
1.815944510161912e-05
0.00016838237940208138
0.0009156325558357564
0.0021998704757965983
0.003870417862820783
0.005704033942348648
0.007437626617029944
0.008810130018956832
0.009605788920338516
0.009691249534573463
0.009039613794695712
0.0077377535766047665
0.005976001632918476
0.004022608326489798
0.002186791010539377
0.0007760839074554577
5.363701249301721e-05
0.00020082432094255267
0.001290469846086204
0.0032742470713992074
0.005986866588392897
0.009166867792610976
0.012491643086620277
0.015621405889148184
0.01844017839680359
0.021788242234773568
0.026609465656067872
0.03263477675607511
0.03864213475710203
0.04280317724788798
0.043645712141259445
0.04056302690099866
0.033837040211084426
0.025123828804184397
0.017710523009991198
0.01340745715019451
0.023445069076229626
0.0281156358337546
0.03379149731398386
0.037887928315286486
0.038408052791763056
0.03545191535224408
0.029998786125977076
0.023312205460986057
0.016753615013496773
0.011335160856196997
0.007365339398605518
0.004608735057386529
0.002537104240716863
0.0009745843863694668
0.00011169516015835952
0.00011836222827793318
0.0010459318243223644
0.0028072921391797253
0.005180089988851005
0.007834485969831027
0.010381869624351997
0.012436158311160515
0.013676654344259158
0.01390137686120518
0.013061411737589894
0.011271370712939982
0.008794884588506607
0.006008742040698168
0.00335124458570963
0.0012624836608968052
0.00012452308554938108
0.00020865847709749437
0.001636918236881953
0.004362691892903226
0.008174170085323978
0.012720385470167845
0.017557180165459124
0.022206262023151332
0.02640056505628541
0.03078803212646589
0.036006013182611485
0.04131681589504892
0.045158527886257606
0.045933269313827074
0.04291279179250217
0.03634961102714056
0.02734271520572196
0.01808391984246434
0.011486435352920743
0.008284540222818725
0.01841652586636197
0.022712585102509657
0.029206345972352422
0.03566468311235223
0.03932307274887475
0.03930539483653113
0.0359451444246216
0.030194483272586926
0.02342569727441674
0.016998403949418477
0.011704241062441247
0.007662864428087432
0.004451220100198415
0.0019294325194137065
0.0003768782010038239
3.595429009139177e-05
0.0009854786273593274
0.003115709736208776
0.006134218773848615
0.00960379379511867
0.013007063273729374
0.015826933218671537
0.017628375022695555
0.018127786610027175
0.01723800889414971
0.015083046383966358
0.011981142183400288
0.008400909144521601
0.004897062464051891
0.0020358461578654334
0.00031946952469848536
0.00011873518589375152
0.0016225764761412921
0.004810526957459903
0.009452805087426387
0.015138248539483905
0.021327219239287837
0.027421862593078185
0.03295418746694797
0.03805873841516209
0.042782690315104094
0.04611181939840151
0.04667581734625009
0.04366733939908579
0.03731340346945039
0.028580137458506877
0.0190054599743649
0.010742700891203128
0.005781397361182285
0.0038076586452797157
0.012473411671378628
0.015986166265989955
0.022369977393696408
0.03015334701056511
0.036430694817268544
0.0395647254218488
0.03912780146550378
0.035477876565826516
0.02962905394887762
0.02298082359200216
0.016714987279637168
0.01140990929720053
0.006940778996831634
0.003307402617170032
0.000889053203385648
1.3108965162696348e-06
0.0007566006049921444
0.0030356823793011582
0.006495997181138104
0.010617358852476813
0.014778276440910386
0.01835005789832804
0.020792537595577587
0.021735820371734015
0.0210347895775356
0.018789602504960576
0.015330404746526336
0.011170884493694784
0.006937962718346411
0.003288214491084244
0.0008216995453331947
3.361888211554513e-06
0.0011021074002261824
0.004154364190352454
0.008957912931025965
0.015096679876477342
0.0219943908336704
0.028988855132093663
0.035411961905798456
0.04067317319846215
0.04411166082011106
0.044787843239017404
0.04202877456090729
0.03606329989364233
0.027914808933859708
0.018904022046009713
0.010572462662739958
0.00456760201037175
0.001699266030331314
0.0008585534650384491
0.006703512280355569
0.009149391495870473
0.014476928606286535
0.022179412833025224
0.02984870188503881
0.035522776382151885
0.038142874466310255
0.037370081473255046
0.033557719389217984
0.027749429171076482
0.02124704462875497
0.01505111802704781
0.009504104168011606
0.004862304160120047
0.0015986549217790874
8.472506842728645e-05
0.00046524098339990313
0.0026287151605130753
0.006217329541898227
0.010675731340990303
0.015331168706098113
0.0194919622893888
0.02254782343862083
0.024056850914518313
0.023805781468365313
0.021836486791421687
0.018436399015219117
0.014096788888740485
0.009445203283343638
0.005162607988835271
0.001895377067453836
0.00017252043804866712
0.0003386287676393771
0.002509877798621976
0.00655946636041518
0.012134380416528727
0.018701919969884052
0.025619208176721062
0.03209643825918644
0.036873023954354045
0.03870935349685287
0.0370372503613693
0.03207236844707163
0.024912074651805748
0.016980368225556243
0.009568723318474623
0.0038804065002737468
0.0008019505827036325
2.133344999771041e-05
1.9997081447212532e-05
0.002267215759158336
0.003565426104663046
0.007116409168733209
0.013330359385779882
0.020758700609678746
0.027617743762211648
0.032544670864054555
0.034639185415982605
0.03350650330020158
0.029517883835198294
0.02373032831825203
0.01736681532138499
0.011290100733868949
0.006082606628461237
0.002278901801633402
0.000270260723327931
0.0002217576455612916
0.0020449406460368133
0.005407821658848031
0.009780999223673242
0.014512520507163082
0.01891964797860879
0.02238276907723815
0.024428216505584164
0.024787890120157054
0.023429264028057648
0.02055318542912129
0.016562135706878464
0.01200416384860511
0.00750095311194071
0.00366886168878333
0.001041999368442336
6.875026453813907e-06
0.000755403914524562
0.003262898088936839
0.007293828054470397
0.012434961910647397
0.018151455624031834
0.02367460695491979
0.02741750748992674
0.02789514289882659
0.02498495107825389
0.0195916352030803
0.013233100985507599
0.007301838726556917
0.0027802152969796864
0.0003559605730656505
0.00013920150129439785
0.0010053287431808719
0.0014248296295159078
0.00011365474690202919
0.00041821362840214745
0.0018938685975140525
0.005604678241364636
0.011229147862173511
0.017562545645146144
0.023329173708154814
0.027380757893603457
0.02875227680931002
0.027065859582103394
0.022837827257070367
0.017212755368898238
0.011443529452451695
0.006397297874694941
0.002611524543973321
0.0004497507786886619
7.703233498176686e-05
0.0014369848162585001
0.0042601219417951084
0.008101988742218872
0.012404845208249951
0.016573235675684972
0.02005192334807121
0.022395517619007065
0.023320396413786634
0.022733422366199338
0.020735422217936405
0.017600878004269866
0.01373787105762639
0.0096342715593181
0.005796924277057761
0.0026903087517422862
0.0006819666620838971
1.024421431751438e-07
0.0007088100236711026
0.0027042670040232815
0.005732622841483148
0.009427360838303285
0.013189220887978994
0.015579951616981317
0.015272734353262141
0.012459234631732286
0.008301303713354297
0.0042353815243102964
0.001297398051001348
3.0350291601960347e-05
0.0006017549231508931
0.0025304109044003726
0.004315103106660685
0.004717704448936524
0.0007271848561847488
0.0003986154729177382
1.6966043543086743e-08
0.0008718871564465719
0.003676563596490261
0.007969267119315143
0.012873494518249916
0.017350597661290764
0.02022762873718238
0.020583334545371503
0.018312260196738626
0.014206655146851118
0.00961379789059284
0.005516138789928985
0.002381328188773969
0.0005008911775835068
1.7600547638724585e-05
0.0009078958362853106
0.0029870940700494233
0.0059361121612083725
0.009345213480937592
0.012768032515600306
0.01577769081199792
0.018017632022974076
0.019240325346698166
0.019330086308451074
0.01830848395566151
0.016323244861103745
0.013623793582369793
0.010527196296776196
0.007378902762698439
0.004512405184569159
0.002211974973990923
0.0006819039354845544
2.574727717534875e-05
0.0002383582092749868
0.001211897792765669
0.002755392032595329
0.004520816601956651
0.005585776870535597
0.005097325939152334
0.0033666121159053397
0.0013895015168121792
0.00015527172614374657
0.00019297877910323286
0.0016208343714149314
0.004217432221464543
0.007202830242798047
0.009114883978198195
0.009150303048634945
0.003992139805734297
0.0035113699747680964
0.0018666788879862118
0.00031124264437977907
0.0001238041150418837
0.0015507012050593964
0.004249821000415337
0.007559158945846768
0.010488407739776582
0.011961413599141811
0.011416130509493269
0.00916373598385715
0.006299019554653182
0.00368114140919063
0.00164555813183551
0.00038493789439296406
2.4244219288014947e-06
0.0004995483196609732
0.0017778754709949491
0.0036537852769195946
0.0058838034568152444
0.008196482865400714
0.010325988529705985
0.012042748129000167
0.013177129546823832
0.013633658299340197
0.013395072574652089
0.01251695465184097
0.01111500379505193
0.009347368718800762
0.007394596837408269
0.005439086496084739
0.003646069623357748
0.0021473291243415587
0.0010292161355335615
0.0003264363137528935
2.241918230622421e-05
5.6557506203825765e-05
0.00031263603668139466
0.00047851161241272674
0.00028092631423536627
1.0357513845263256e-05
0.0002582489214977978
0.0014398473078807304
0.003610240728936888
0.006583204243767024
0.00994319322845682
0.01289637775611229
0.014302476606142334
0.013782043409089544
0.009228399886423246
0.009076614294426015
0.00703858803360608
0.004034524662551707
0.001519871229112047
0.00017770817544649829
0.00013851790288455098
0.0012087673626359414
0.00284585255039048
0.0042121925582508605
0.004606670234314343
0.003919151277562725
0.0027480633118954255
0.0016308087006722063
0.0007445065794944554
0.00018225706772508087
3.3101399733168856e-07
0.0002112822177933946
0.0007831676716462131
0.0016448594391972856
0.0026964235795649233
0.003822827995803189
0.004908649669235975
0.005851607470320288
0.0065729095908021885
0.007023271590790408
0.007184405686393208
0.0070664541637965326
0.006702663194234482
0.006142569861626807
0.005444884338299747
0.004670849681658207
0.003878536020623803
0.0031182028086913353
0.002428831210725928
0.001836109068105693
0.0013520302963649148
0.0009761956588848631
0.0007260493030303842
0.0007207173015068536
0.0011336385117862089
0.0021777446989857995
0.004033545620520222
0.006648115216701919
0.009765909350782755
0.013055798432084995
0.016084545101796438
0.018234903546206892
0.018800416962929455
0.017717653004339824
0.015381874378305876
0.015924703775285414
0.01431469682455449
0.011051451952454713
0.0074035172699389
0.00417741771885494
0.0017805337028658642
0.0004018181595822072
9.173621100288325e-08
0.00020837822712940963
0.0004985369217244854
0.0005411148688706206
0.00040659783038345023
0.0002508359151812826
0.00011826176446915155
2.9467610073294807e-05
1.074740084375491e-07
3.8570521022558524e-05
0.00014491457171555706
0.0003112453567395762
0.0005234165260651548
0.0007636647273710352
0.0010135984865274597
0.001256953146135536
0.0014815890896826248
0.0016804754731025336
0.0018516386156369712
0.0019973198082454523
0.002122691708516433
0.002234554298274129
0.0023402132795324816
0.0024467686972662376
0.0025607249238915513
0.002687854422364651
0.00283309619068773
0.0030003783529639824
0.0031921600175520495
0.0034087341888640464
0.003684585307870436
0.004260256935187553
0.0054718822417093235
0.007446891582123364
0.010103523314174054
0.01315051086713077
0.016219171160254744
0.018966242286642288
0.02104775533165307
0.02209419394073935
0.021806200630497083
0.020303959974920367
0.02129212057821549
0.022704308640503205
0.022098046474216294
0.019594855640411888
0.01607053495005117
0.012204248243747032
0.00845973252288229
0.005221841419952386
0.002813929581819782
0.0013380158402757855
0.0006078191101407565
0.0003130522383967181
0.00018082276849625123
9.387744965947401e-05
3.709558847664875e-05
7.362610347253106e-06
1.5568935897873454e-07
1.0209574333024158e-05
3.198293135149347e-05
5.992207585263698e-05
8.858907807246906e-05
0.00011277269296516223
0.00012771927088795802
0.0001296144578415949
0.00011639566338868139
8.889718265600087e-05
5.219366069035806e-05
1.68920265879005e-05
1.6130555586440132e-09
2.5004817217352474e-05
0.00012083917299647016
0.00031970000332756963
0.000653807853286045
0.0011514948845311268
0.0018330737607163583
0.002706940420485377
0.003766285510130849
0.004986787677491837
0.006343371240209836
0.007941747022952689
0.010000446136877039
0.012553580141998531
0.01542324889929167
0.018289325451856825
0.020814708239597624
0.022717103710228077
0.02377422245184624
0.023843329104953462
0.022930581406660523
0.021233935265740772
0.02594438857584104
0.028192241532985936
0.028812754038704574
0.027659366219706303
0.025167716148420092
0.02176035864444378
0.01780118816039456
0.013688711006168659
0.00989194357885087
0.00680412337236264
0.004565665246504072
0.0030542008762846993
0.0019475255227026252
0.0010697763695362936
0.00043877919016997133
8.28686847569637e-05
6.63222146821884e-06
0.00019174081892978404
0.0005991855005704548
0.0011726083460812434
0.0018425565824932164
0.002531650024234864
0.0031605857713644307
0.003654934713556674
0.00395240816754649
0.0040100658682227655
0.003810804310146405
0.003368139287317255
0.0027284160520984653
0.0019695835573234717
0.0011960747659317639
0.0005298423005289551
9.822363060993917e-05
1.985995300312622e-05
0.0003903030527937206
0.001269071151814311
0.002669776861410375
0.004554611003277244
0.0068276395260782555
0.009369788290250796
0.012132658112207944
0.015029728883793218
0.017869848128550195
0.020403122607306243
0.022380359195518434
0.02359629207577024
0.02393222865283505
0.02340472679901752
0.022205395923180975
0.020547479925276203
0.028646483908508474
0.03152288976748909
0.03325094175761743
0.03353607944108436
0.032437345174484954
0.030105559418543842
0.026741757696712866
0.022647723731807158
0.01825582917106804
0.014033735691126575
0.010319008794805911
0.007229629790347865
0.004643270944366866
0.0025255868994582533
0.0009969510775142442
0.00015635452810416214
4.2852273291353736e-05
0.0006334566336703205
0.001845764125434046
0.0035448984065915077
0.00555439075017455
0.007670556862621984
0.00967959114397836
0.011376449767436519
0.012583994868611751
0.013170750124226136
0.01306546749373709
0.01226679368000587
0.010846671192792142
0.00894655573229596
0.006766237197922095
0.00454568593887581
0.0025416492446225
0.0010009031002412702
0.00013329200292618758
8.761778742172534e-05
0.0009333343348795846
0.0026504804447876353
0.005111538957028527
0.008039307708821488
0.011135523952055573
0.014171835409957971
0.016938482895381253
0.01924629730285819
0.02091760468842811
0.02180402905047631
0.02185024511545457
0.021154863009086162
0.019988968493429897
0.018552831075846956
0.02911652368779019
0.03230892474593208
0.03477932923378568
0.036182532306884486
0.03632101486466509
0.03513291172354829
0.032667765777534656
0.029101170266121346
0.024742326379248315
0.019990713468845688
0.015246018510455634
0.010824829716035541
0.006901452706392636
0.0036681647488784877
0.0013623703726959547
0.00015906767852571976
0.00013954115892792632
0.0012847931186635415
0.0034768459303113133
0.006507815628139795
0.010096286677469209
0.013910421370755092
0.017596233073822097
0.020809053612585563
0.02324535580513842
0.024671723548530387
0.024948111505516957
0.024042597028328113
0.022036074517148715
0.0191160379871883
0.015559664966955898
0.011707599511798358
0.00793074949252376
0.004593258181123264
0.002015418252450917
0.00044077512945680283
1.0984037788564531e-05
0.00075156523151636
0.002555675192830405
0.005118042800769197
0.008019467764295832
0.010915073312616848
0.013546661183311383
0.01573076178121542
0.017314679601038878
0.018174339119124937
0.018275951876847038
0.017734338061619184
0.01681998839498116
0.01570852421579127
0.027488448246761176
0.03065884701725662
0.03339800612818972
0.0353748463575707
0.03626880187379265
0.03589768759923736
0.03421206087583521
0.03128753453214604
0.027311788528418136
0.022577227767155574
0.01746559975385669
0.012403569713712965
0.007798015029402
0.004019042610973237
0.0013796167658624463
0.00010181768256978359
0.00029585757735674093
0.00194998969631957
0.0049298612070483505
0.008987441837780174
0.013779598292547691
0.01889553524768802
0.023891498595159308
0.028330077864794773
0.031820253085785205
0.03405407597662551
0.03483591069244653
0.034100889853259354
0.03192071911777031
0.028495975399553203
0.024136060336281476
0.019228452802583368
0.014200797994678131
0.009479337707289046
0.005447951353277066
0.0024120407992928613
0.0005708895817074621
1.4798902163342452e-06
0.0006492467179373018
0.002279444244427198
0.004497561589115812
0.006920582417750814
0.009247885455264022
0.011267469417845661
0.012816219159993935
0.013768744286139497
0.014082431893027068
0.013843490468633365
0.013269640171176504
0.012504064289647792
0.02424106143535743
0.027099381916138813
0.029663779494104783
0.03165253457577983
0.032738080107676634
0.03271095627593743
0.031486602270018337
0.02909072313947147
0.025638478994098095
0.02134334203785801
0.01653925296620499
0.011664422364849549
0.007204386183042721
0.0035829046173458377
0.0011197351384816879
3.8715250009224455e-05
0.0004543086838057243
0.0023606319849651942
0.005629309486985054
0.010016585205283564
0.015180223999354583
0.02070570202718595
0.026140480761522283
0.031033601616626875
0.03497680258003326
0.03764255700524588
0.03881459027916214
0.03840727403109937
0.036471810721578984
0.03318863371735159
0.0288474294547029
0.023816939024093084
0.018508582885698458
0.013337115301653985
0.008682649311323447
0.004857538394460457
0.0020810255589509066
0.00046382713810905174
3.613437706590735e-06
0.0005644695429545523
0.0018637192617895365
0.003571322882034051
0.005393759912552026
0.007103011577300336
0.008522005557623284
0.009516871420949938
0.01002395737093125
0.010080460636964318
0.009826368013732519
0.009365348177521961
0.02005722677698679
0.022412870844782537
0.024494049016154533
0.026082692020002175
0.02692329378877047
0.026848396683378215
0.025790324206302638
0.023770859593605757
0.02088511083055571
0.017309359682021058
0.013320887062388025
0.00928776327641148
0.005625323553717226
0.002693050619414946
0.000757601165317293
5.580746445184976e-06
0.0005337332976003253
0.0023395503395767067
0.005318561340630809
0.009268897797348824
0.013903826163558513
0.01887244259951106
0.023787714098407988
0.028259894300732412
0.03193191540568773
0.0345126344052453
0.03580392668505722
0.03571807963392101
0.03428352429253995
0.031638627033815994
0.028014811990283505
0.023711394188657902
0.019065555077138353
0.0144205891467262
0.010095644914437438
0.0063596796641776365
0.003411375257580548
0.0013665417787517824
0.00025460452455058793
1.5684939531904093e-05
0.0004890040964833022
0.0014502743166119718
0.0026686901406677726
0.003940876239539154
0.0050984170961376404
0.006010039673074878
0.006596784326499987
0.006849071784635393
0.006828885581974684
0.006597020694308468
0.015642704944072598
0.017423405951879637
0.018893377774479705
0.019900816713970287
0.02029746168590564
0.019991163969941963
0.018956970024367588
0.01723670307195583
0.014932210946753587
0.012202763712913754
0.009262529529523427
0.006365713828868987
0.0037805353101531764
0.0017437629594879566
0.00044015406926199783
2.1680828700288934e-07
0.0004919448773950653
0.0019143608476924674
0.004195067596106974
0.007192402440281044
0.01070297606928168
0.014475144315521025
0.018228224004559677
0.0216762386652979
0.024553764612950547
0.026640796495764466
0.027783290057489606
0.02790669605893438
0.027020756106464712
0.025215368182283218
0.02264862638314754
0.01952895824722862
0.01609388798540903
0.012587891966737824
0.009241462038253758
0.006253092395127551
0.0037752815239298367
0.0019053729168215779
0.0006818727296310027
8.581773996781353e-05
4.173001697311793e-05
0.00042856027628727656
0.0011025229821961544
0.0019183144452374608
0.0027433424454756735
0.0034673643999894714
0.004012000037783106
0.004338318782560042
0.0044482195564766285
0.004363330774686732
)
;

boundaryField
{
    "(inlet|outlet)"
    {
        type            zeroGradient;
    }
        "(front|back)"
        {
            type            empty;
        }
    "(top|hills)"
    {
     	type            zeroGradient;
    }
}

