/*--------------------------------*- C++ -*----------------------------------*\
| =========                 |                                                 |
| \\      /  F ield         | OpenFOAM: The Open Source CFD Toolbox           |
|  \\    /   O peration     | Version:  v1806                                 |
|   \\  /    A nd           | Web:      www.OpenFOAM.com                      |
|    \\/     M anipulation  |                                                 |
\*---------------------------------------------------------------------------*/
FoamFile
{
version     2.0;
format      ascii;
class       volScalarField;
location    "0";
object      nutCoeffs18;
}
// * * * * * * * * * * * * * * * * * * * * * * * * * * * * * * * * * * * * * //
dimensions      [0 0 0 0 0 0 0];

internalField   nonuniform List<scalar> 
1000
(
0.04597879220948169
0.04396570463121872
0.03275326161639889
0.016380551585270565
0.0007270141339131892
-0.012140653228223814
-0.02205069808867732
-0.02923834660611473
-0.03420829329462881
-0.03797852388711936
-0.04184595077697102
-0.046966417283922805
-0.05343693967703813
-0.060528460771867
-0.06797543439387894
-0.07570380518111754
-0.0836384367907482
-0.0917026544806047
-0.09981666804067928
-0.10789572321380424
-0.11584867906461238
-0.12357779054752713
-0.13097917394728012
-0.13794478700008328
-0.1443639264169236
-0.15012491238339112
-0.15511699119129413
-0.15923140904697033
-0.16236403167250998
-0.16441884411298818
-0.16531284700435606
-0.1649824360277839
-0.1633901554832043
-0.16053082254374673
-0.156435715912262
-0.15117425295618492
-0.14485242106538543
-0.13760844293393507
-0.1305359564758702
-0.12781681531762698
-0.13171030052213534
-0.13988579362343434
-0.14889628825265114
-0.1554890347160744
-0.15800650552662562
-0.15627695111538562
-0.15038104353929832
-0.14021942472601565
-0.12659704873018143
-0.11199302980273432
0.06156264534987116
0.06082907951050282
0.050103888826013555
0.03277282386695826
0.014817809858998833
-0.001211642001755421
-0.014708203418301802
-0.025543258285284216
-0.033855321818357036
-0.04041658776840376
-0.04649253344732934
-0.05332535054069312
-0.06131968169546157
-0.07006658193463267
-0.07936276742594074
-0.08911790908333272
-0.09923164897409718
-0.10959424756072424
-0.12008666357799684
-0.13058088037093715
-0.14094084903820647
-0.15102456911271334
-0.1606863005058927
-0.16978012140257545
-0.17816222684319818
-0.18569298036812326
-0.19223883357835653
-0.19767294896970414
-0.20187767575498042
-0.20474735595416796
-0.20619291553496227
-0.206147897873713
-0.20457468104049162
-0.2014700973784101
-0.1968692151826203
-0.19084631097846844
-0.18351320353751813
-0.17501469921397592
-0.1664127456307161
-0.1617156527316755
-0.1628905689957909
-0.167356846913419
-0.17169879434805083
-0.17307433361963823
-0.17032854231886554
-0.16366262177134683
-0.15353673738344406
-0.14038687458420027
-0.12548737387822856
-0.11096588135287183
0.07807318332469208
0.0789747287352546
0.06948052814747382
0.05224246615313194
0.033014534008349715
0.014556738708685596
-0.002217432001111365
-0.016826990834662655
-0.028929695294507198
-0.03883081979766925
-0.04754614937265352
-0.05625552782447578
-0.06572998918315491
-0.07605191812278227
-0.08712267765373433
-0.09883285316668917
-0.11105371652558922
-0.12363937857956518
-0.13642957539227435
-0.14925261280086155
-0.16192952714717548
-0.17427836281714584
-0.18611805552801378
-0.1972730202177254
-0.2075753025792693
-0.2168660568325465
-0.22499650161852758
-0.23182747729385234
-0.23723063535572664
-0.24109074438689115
-0.2433094375785253
-0.24381111729221164
-0.24254909355752768
-0.23951150357333406
-0.234725398113182
-0.22825865111264051
-0.2202189758821382
-0.21075054788162484
-0.20079406010024087
-0.1938403932815506
-0.19149158194607838
-0.1912929150682506
-0.19021788991130847
-0.18603154063202215
-0.1781096838559924
-0.1669728688151124
-0.15335571132475445
-0.13802146026752304
-0.12245243292063245
-0.10836988210373774
0.0950415485432597
0.09787556788637446
0.0902822085535276
0.07418817352258165
0.05489931717534291
0.03513864686394428
0.015933739836194834
-0.002002456333036082
-0.01785343388349096
-0.03129756964686976
-0.0428455929135579
-0.053390347937145304
-0.06408682682202681
-0.07567435996124461
-0.08820359431873588
-0.10154895373324761
-0.11555713512630421
-0.13005095413968135
-0.14483473786600773
-0.15970026404657198
-0.17443327297593847
-0.18882033191444333
-0.2026534074370942
-0.21573486149883098
-0.22787895766245939
-0.23891210116276265
-0.24867279552500066
-0.2570093600252017
-0.26378081722323515
-0.2688581298719986
-0.27212805584213995
-0.27349920295783103
-0.272908521478342
-0.27032820685124576
-0.26577066151217826
-0.2592915424528255
-0.25098997305394755
-0.24100642291037117
-0.23008940110262874
-0.2209341778926799
-0.21473735135853536
-0.20950069485354367
-0.2028794081181584
-0.193382407721517
-0.1808980480753508
-0.16616159999787025
-0.1500183783109488
-0.13334033492457784
-0.11764298011547082
-0.1042833545339763
0.11201063617735685
0.11700177404581745
0.11187467545362975
0.09788167584827692
0.0797559447813103
0.06001762403096592
0.039637832952681105
0.019396545370796898
0.00046660011574917116
-0.016172268658272492
-0.03033541409389327
-0.04240790185056209
-0.053888069305348126
-0.06626306354196415
-0.07976091535847911
-0.09424592962237936
-0.109548258716975
-0.12546935790288027
-0.141789314496303
-0.15827500368872205
-0.17468864585914118
-0.19079567946764256
-0.20636997910950866
-0.22119836896395167
-0.23508128222750233
-0.24783172184694666
-0.2592740622814904
-0.2692410001756991
-0.2775738050243003
-0.2841237277576787
-0.2887561914597905
-0.2913578331596502
-0.29184377401302447
-0.29016576371840835
-0.2863182981358932
-0.28034268121974365
-0.27232815516437975
-0.26241053909744155
-0.251104151074473
-0.24014102893328235
-0.23030642203254503
-0.22029813334475568
-0.20865100135253575
-0.19467167360280577
-0.17867746156843484
-0.16146846112377872
-0.14382671796459714
-0.12657271655711275
-0.11118445747616236
-0.09875088984534516
0.1285062390421908
0.13579801032723599
0.13359321621400355
0.12252862545937424
0.10669068989973796
0.0883100415179683
0.06820022362394634
0.04707103295835415
0.026283666263881192
0.007376061432040394
-0.008722247557065148
-0.021759019940903842
-0.03348153644906639
-0.04609526788200079
-0.06000336705475176
-0.07506551886222806
-0.09110344389120519
-0.10790773837851476
-0.12524612196294255
-0.14287308176503186
-0.1605390650008554
-0.17799864083558703
-0.1950156221045094
-0.21136674501695085
-0.22684152499081378
-0.24124010840711588
-0.2543715996616614
-0.2660502576212664
-0.2760962426269891
-0.28433723823101253
-0.29061352484158826
-0.2947860813366552
-0.29674519579179437
-0.2964197177890579
-0.29378434259627173
-0.2888645508220106
-0.2817382905212028
-0.27253499265031705
-0.26152296399894287
-0.2494305016219439
-0.23666580771282306
-0.22275046071037022
-0.20717591300511196
-0.18999329691680983
-0.1718023110046856
-0.15331313688702053
-0.13512182410280935
-0.11793082971821621
-0.10318775611990068
-0.09181299158903153
0.14400382208786228
0.1536497204481263
0.1547101973940145
0.1472655902566428
0.1346961048082934
0.11889894089223776
0.10049352989549028
0.08004335959413553
0.05894389221469232
0.039112785292371006
0.022127351007194845
0.008873114466829713
-0.002522123108296616
-0.014836007875323489
-0.028614637904853784
-0.04371607762416004
-0.05995904665630254
-0.07713034067866509
-0.09499392109944645
-0.11330062831154457
-0.13179718980265542
-0.1502343025124407
-0.16837088810610004
-0.1859772730238337
-0.20283449415413818
-0.21873162799818463
-0.23346383819931912
-0.24682880522188505
-0.25862729444761295
-0.2686654738046913
-0.276760609942227
-0.2827499631527853
-0.2865001691843081
-0.287917448827177
-0.28695598673212497
-0.2836233058782271
-0.2779828170741789
-0.270152703884227
-0.26016982222130813
-0.2478361665429069
-0.23325213696922958
-0.21676956135854483
-0.19877276752538597
-0.1799010270662213
-0.1608675275575395
-0.14218893726440815
-0.12424026031530527
-0.10762251551404285
-0.09378645852876134
-0.08355274359605361
0.15791878793802266
0.16987033709040092
0.1744071051139991
0.17112280243259664
0.1626399233701647
0.1504889499204637
0.13509156861187488
0.11683923249739862
0.09704813934237846
0.07781854652729477
0.06118316578111556
0.048540948780050615
0.038020488769554064
0.02649295894158766
0.013321283439018703
-0.0013518894457222874
-0.017344381575497562
-0.03444211067113505
-0.052408541326645124
-0.07099383538404411
-0.08994354780261933
-0.10900602304294517
-0.12793655307976767
-0.1465003319090579
-0.1644717570336306
-0.1816320161081142
-0.19776730496428196
-0.2126651719072201
-0.2261153305935735
-0.2379116034472602
-0.24785749170471177
-0.25577475706833447
-0.2615128875485578
-0.26495943771270336
-0.26604873882126495
-0.2647681553732072
-0.26116104635208853
-0.25532658931155316
-0.24710384871008464
-0.2355379394532979
-0.22050442341090937
-0.20306564364113697
-0.18430744739031485
-0.1652455691043854
-0.14657579410501487
-0.1286013884023173
-0.11152110496358114
-0.09589053743526436
-0.08317991644197097
-0.07413826743130435
0.16963144650824255
0.18372528110540556
0.19178441466601578
0.19300619923932383
0.1892282155555837
0.1815843940766107
0.17030253633714149
0.15560049317492758
0.13863478110070995
0.12150332433436278
0.10646500464825473
0.09524526604008449
0.08608462812426866
0.07575566521425334
0.06359052427085063
0.049732509415146016
0.03436477965809916
0.0177022137842836
-1.749609251905296e-05
-0.01854275258177093
-0.037616249164008596
-0.056982311557925824
-0.0763911880552468
-0.09560274564936379
-0.11438623526093032
-0.13251909054566885
-0.1497851162076534
-0.1659715231550427
-0.18086854247017095
-0.19427080928606508
-0.20598143628059168
-0.21581898950248163
-0.2236256840380768
-0.22927667200869115
-0.2326887415660489
-0.233826680317299
-0.23270749184602513
-0.22940140277912363
-0.22359619872938238
-0.2138037853728085
-0.19974365245193224
-0.18296359998494202
-0.16498859573451233
-0.14701335695324388
-0.1296584623635116
-0.11306710243611612
-0.09734517773794127
-0.08305342526828444
-0.07166215742273985
-0.06384472787063492
0.17853785444114262
0.19448742001428618
0.20591589676143504
0.211735613923524
0.21301375079200363
0.21047163231121022
0.2041490691025693
0.19409680790928416
0.18124959592463039
0.16753634558597394
0.15520956800891234
0.14610903693734453
0.13868273534218414
0.12986077033613885
0.11900652769824267
0.10626418539926062
0.09181826182060267
0.07588545960784394
0.05870583357418645
0.04053425749613093
0.02163223830674714
0.0022607575300754887
-0.017325099685021654
-0.03688032928516083
-0.05617143023295267
-0.07497614415221585
-0.09308229250290347
-0.11028491550702
-0.12638522116044215
-0.14119020391140819
-0.15451424197529445
-0.16618384983226822
-0.17604305957892644
-0.1839608733302004
-0.18983897231140326
-0.19361805227101575
-0.19528316719727298
-0.19486675603353912
-0.19195772631297672
-0.18477270234298268
-0.17291602882512389
-0.15814758021887987
-0.14217308061678
-0.12622794440053875
-0.11086423953766802
-0.0961495281493677
-0.0821750557237068
-0.0695277190483683
-0.059627669298308476
-0.05305307134033529
0.18411043327158846
0.20150870290009368
0.21593406240199198
0.22613769613362655
0.23248137128656032
0.2352832053202095
0.2344073367551454
0.22974886344037695
0.22197413524725151
0.21269611307501374
0.20394351720268458
0.19746099943559298
0.19198412284947872
0.18484022079341728
0.1754821394230514
0.1640551676932156
0.15074553131246843
0.1357717218614131
0.11937580345908769
0.10181473347990792
0.0833526248218491
0.06425319477949763
0.04477406216914771
0.02516178723741995
0.005649121331676471
-0.013545555648417768
-0.03221808084776444
-0.050175728945176766
-0.06723548744947717
-0.08322178767062285
-0.09796604291288138
-0.11130794994808689
-0.12309845821713744
-0.13320422429148748
-0.1415139965875984
-0.14794467992476926
-0.1524473163834569
-0.15501230256360624
-0.15518250414204265
-0.1510976635488516
-0.14227058929295844
-0.13042326199364304
-0.11724121728587292
-0.10392299505300366
-0.0909850832361989
-0.07849331691757395
-0.06657215574228786
-0.055824250633475195
-0.04755556733326861
-0.04222837248080491
0.1859590616032073
0.20429571902544227
0.2211288927538984
0.23517229195201636
0.24619621618647172
0.25415654521486997
0.2587649792223504
0.2597792822148336
0.2575694833666101
0.2533184939759225
0.24864762989538167
0.2450255197580176
0.24153533604987867
0.2360953148022752
0.2282948174213509
0.2182799566715478
0.20623781704248437
0.1923870245514172
0.17696869142840377
0.16023794365937385
0.14245620164017705
0.12388423274068606
0.10477633177192924
0.08537524914122882
0.06590891347119254
0.046589138547611486
0.027611013977543845
0.009155571131370669
-0.00860834666496103
-0.025520976567313468
-0.04142875291237716
-0.056183880364911905
-0.06964409853151769
-0.08167520769315618
-0.09215568003506067
-0.10098171581492231
-0.10807408373221983
-0.11338441221583587
-0.11645785041766474
-0.11553395462199395
-0.11006283593645758
-0.10155402046636176
-0.09154379637095154
-0.08115036426742216
-0.07087819502601082
-0.060832263832551206
-0.05118382236767355
-0.042520976126527596
-0.03597591076917582
-0.03188364779598658
0.18388868646156187
0.20258312923824304
0.2210494289008696
0.23807292557985454
0.25298591923732766
0.2654552764589803
0.2750769580873908
0.28149855831683224
0.28479199783949966
0.2856441628834717
0.2851445573156958
0.2843581318851035
0.282743759821356
0.27892594722230374
0.27265686324594535
0.26408112397587113
0.25338328524103065
0.24077770451127084
0.22649917674126377
0.210794570628992
0.19391576867106947
0.1761133574826766
0.15763185384126246
0.13870494770845881
0.11955251977143136
0.10037895325728372
0.08137218055857587
0.06270552093797616
0.04453945480177161
0.02702493301517194
0.010306629265013226
-0.0054749566022550804
-0.020181985581530684
-0.033680016714998685
-0.04584091940895011
-0.056547451304853516
-0.06569936019322493
-0.0732206628129476
-0.07869823607033499
-0.08059890746328345
-0.07835578616316445
-0.07318099156269532
-0.06638955653123677
-0.058985243028425643
-0.051459000975414414
-0.04396188761034377
-0.03670119051851047
-0.03021473146170845
-0.025420565255882474
-0.02252904978707705
0.17794700506678915
0.1963952734554656
0.21559594443891142
0.23448666349941566
0.25213614673680823
0.26802084660334774
0.28167250249344417
0.2926681023909564
0.3008133720766884
0.3062973123026437
0.3096321011410312
0.31142044648395417
0.3114804630087463
0.30915670797801853
0.304363738486198
0.2972385296517166
0.28795591812653426
0.2767181179760561
0.2637455096321432
0.2492686883140664
0.23352255021130183
0.2167411508869019
0.19915405787207757
0.18098278374701138
0.16243807101835694
0.14371833767316647
0.12500809678454924
0.10647885824770191
0.08828992699688847
0.07059104279928814
0.05352491731172324
0.03722965618914368
0.021840690391020705
0.007490968417773477
-0.0056908620307323165
-0.017583665633092594
-0.02807953238106277
-0.037090052087786304
-0.044272120470828735
-0.04839682127740711
-0.04893845026228068
-0.04679672456449749
-0.0430310520294508
-0.03849701004528681
-0.03365066125609788
-0.02867435816259129
-0.02378933496414392
-0.019454193666070912
-0.016359285784877723
-0.014607854789759565
0.168445641303085
0.1860743991209194
0.20507592117914544
0.22458202507129416
0.24356677443426955
0.26142462575121256
0.2776827353631543
0.2918994887990332
0.30368529985591164
0.31280414315608035
0.3192363436332682
0.3231376604012479
0.3246173806727686
0.32364699862754437
0.3202761383693449
0.3146244990941254
0.3068465079875285
0.2971214970279587
0.2856453489823784
0.27262381208888375
0.25826789172749204
0.24279019995134052
0.22640252989632376
0.20931324914165442
0.1917250578107959
0.1738329524356277
0.15582183503456398
0.13786621556978118
0.12012917465125414
0.10276354075285513
0.08591348980383695
0.06971577576107003
0.05430229076143533
0.03980012202645243
0.026331243392279668
0.014010124967636244
0.002939826384501226
-0.006793454001472511
-0.014930888465105173
-0.020576386388080882
-0.02329674636053368
-0.02370723835179488
-0.02260276578909696
-0.02066426290762949
-0.018286527929886835
-0.015660226871635128
-0.01299759339738502
-0.010662281320905229
-0.009130785832467602
-0.008427392446249028
0.15593617023602732
0.1722537794727501
0.19018980808237415
0.2090736588746834
0.22792312329284803
0.24614604318412645
0.2633189744766777
0.27903560877024225
0.29281182564357405
0.3041294759340973
0.3125737995651823
0.3179424594998455
0.3205249246885849
0.32073462810653947
0.3187075347446779
0.31453584328039225
0.3083423283981395
0.3002725953636554
0.2904884468195289
0.2791631981640168
0.26647851359530883
0.25262222844247245
0.23778673254877752
0.222167021773371
0.20595815713646948
0.1893525254981611
0.17253613743202195
0.15568641480325057
0.13896954872445402
0.12253996192058399
0.10654018084866185
0.0911021307101832
0.07634885456593854
0.062395727869633814
0.04935087216455853
0.03731426041579268
0.026375249355275406
0.01660882405801625
0.008190427321803813
0.0017014049387045211
-0.0025455642169623194
-0.0049302014222054324
-0.005997453136387901
-0.006244513327221624
-0.005986221535482766
-0.005400140089559709
-0.004671420155276172
-0.004067079861656249
-0.0038849232218537253
-0.004102845128475831
0.1411380285004055
0.15577087314917454
0.17193275178187079
0.18912683232646477
0.20650911441641862
0.22356773737633606
0.23996157702007298
0.25535973063529954
0.26928853680051884
0.28112936090864404
0.29027517457470886
0.29631784366918396
0.29960162775561294
0.30074292606626574
0.2999052699834495
0.2971464003549546
0.29254985594439414
0.2862202382994587
0.27827902863339776
0.26886220814796996
0.258118552506604
0.24620844723841362
0.2333026765622314
0.2195802198341302
0.20522524579724608
0.1904229572080117
0.17535496363471292
0.16019496385179502
0.14510513117853982
0.13023351598480318
0.11571408201025897
0.10166685864683936
0.08820017171581711
0.07541259236898937
0.06339439985605311
0.05222786357554952
0.04198590665636885
0.03272943893586991
0.024564478904416875
0.017812588963971497
0.012667039979523577
0.008927032582976108
0.006261519626962231
0.004343647468627307
0.0029439944305814877
0.0019132884700116789
0.0011039943582273335
0.00033586175694415543
-0.0005566133931594887
-0.001534478709513573
0.12484053177338071
0.13754758402199468
0.1514396002001577
0.1661596285849558
0.18105643151993434
0.19573356567310277
0.20994207748191596
0.22344288901659584
0.23585463421892558
0.24662780643804125
0.25517768315780437
0.26106901466286153
0.2645955925562457
0.2663429257120779
0.2664477061122486
0.2649322733474243
0.2618396789448991
0.25723182766645675
0.2511886027467464
0.24380711492206167
0.23520141986955545
0.22550157671532525
0.2148522877861065
0.2034102996411459
0.19134043402282963
0.1788107646439682
0.1659872264142606
0.15302848420096965
0.1400816036100524
0.12727946326159317
0.11473999737284758
0.10256660701761895
0.09085065224485397
0.07967364108952084
0.06910906821750289
0.05922338757884795
0.05007516396755089
0.041712899764680234
0.034192972493084735
0.027652249223130698
0.022187425613275715
0.01771823775094658
0.014074903349317663
0.011068523487286206
0.00854679017012834
0.00639578318981411
0.004508759052251185
0.0027755761106505014
0.0011170950686410707
-0.00043031350875529986
0.1078137397054357
0.11848109333376444
0.12983252791544767
0.14162222593591153
0.1534187081001019
0.16495490503358018
0.17606875223927287
0.18661075544635417
0.19633686367517286
0.20488251982871106
0.21184650916921444
0.2169143936152423
0.22026431841870245
0.22227959904113548
0.2230332488697014
0.22251722903047366
0.22073841997979937
0.2177201254507653
0.21350335263471298
0.20814790014415208
0.20173245695004446
0.19435383917487914
0.18612513862730784
0.17717260123097575
0.16763141991033575
0.15764101764550575
0.14733993993689348
0.1368611956753921
0.12632867846320564
0.11585467550379405
0.10553932821283185
0.09547098649391586
0.08572787540571286
0.0763798534236197
0.06748954070932575
0.05911288494871173
0.051297984604310835
0.04408296730595689
0.03749385806890202
0.03156064665645269
0.026313674559960774
0.02173351047576735
0.017748696303329235
0.014262979067986594
0.011183665062466229
0.008432385266376116
0.005941021127504605
0.0036524821503520623
0.0015388770307215626
-0.0003717326926288182
0.09075544010376889
0.09937824911243588
0.10812280637748527
0.11683786438425085
0.12532172743995437
0.13344157686261282
0.14111305456695877
0.14826660257220245
0.15480659734046737
0.16059892583818894
0.16549609101759252
0.16937487769139792
0.17227247434375
0.1742916289371225
0.17542841718095395
0.17565233440368802
0.1749420523941243
0.17328930139891846
0.1707018913014841
0.1672056792874877
0.1628450023601894
0.1576818884960892
0.15179376093461852
0.14527052361120077
0.13821089395744418
0.13071850348323033
0.12289854747885871
0.11485443892037382
0.10668571668438524
0.0984860839057536
0.09034292364330844
0.08233671220385068
0.07454115739371037
0.06702297493123073
0.059841444643047415
0.05304718627128207
0.04668050638577076
0.0407692968131551
0.035324058067956694
0.030335561176644356
0.02579322560273411
0.02167913093204943
0.01795443786446879
0.014567107996050413
0.011463063159425697
0.00859589733701874
0.005932087280494204
0.003454327587463323
0.0011664454847682424
-0.0009043303315538327
)
;

boundaryField
{
    "(inlet|outlet)"
    {
        type            zeroGradient;
    }
        "(front|back)"
        {
            type            empty;
        }
    "(top|hills)"
    {
     	type            zeroGradient;
    }
}

