/*--------------------------------*- C++ -*----------------------------------*\
| =========                 |                                                 |
| \\      /  F ield         | OpenFOAM: The Open Source CFD Toolbox           |
|  \\    /   O peration     | Version:  v1806                                 |
|   \\  /    A nd           | Web:      www.OpenFOAM.com                      |
|    \\/     M anipulation  |                                                 |
\*---------------------------------------------------------------------------*/
FoamFile
{
version     2.0;
format      ascii;
class       volScalarField;
location    "0";
object      nutCoeffs25;
}
// * * * * * * * * * * * * * * * * * * * * * * * * * * * * * * * * * * * * * //
dimensions      [0 0 0 0 0 0 0];

internalField   nonuniform List<scalar> 
1000
(
0.016364288479772993
0.015674014521522322
0.012737763416389847
0.009064880231622368
0.006013799097311537
0.0038895591204183236
0.0025474670699077665
0.0017525263307779696
0.0012966931479127626
0.001030447598144531
0.0008723190949576268
0.0007848233278033197
0.0007315272644860428
0.0006916608247069226
0.0006667004778310904
0.0006607110487876819
0.0006771767388193
0.0007193999194238192
0.0007906758188541518
0.0008941186900761031
0.0010320418522386206
0.0012049425467869379
0.0014101749925927085
0.001640635891146326
0.0018837848092312646
0.0021214795364747786
0.002331033122580599
0.002487639356246289
0.0025680370202876193
0.002554785892164718
0.0024401813596024564
0.00222874518310368
0.0019374695664112753
0.001593530652199625
0.0012298915849892397
0.000879860498704622
0.0005718611011851385
0.0003256284749306129
0.0001484422389793782
3.404451026066304e-05
5.450491035144018e-06
0.00018977897416973618
0.0008701961874569193
0.0024293473025662556
0.005168797964152582
0.009169804054774947
0.014119108001941586
0.01900995874164007
0.02210443126222771
0.02237615240339816
0.02023196053137719
0.019444842571369646
0.016226302369907342
0.012049190810408495
0.00832306669919525
0.005496703650756232
0.0035589189420695013
0.002340964702392483
0.0016315612180132998
0.0012312394762489084
0.0009956637638571693
0.0008372232292484813
0.0007060415358467046
0.0005961569092881856
0.000513834061602095
0.0004615131511141585
0.00044019792146631815
0.0004510868556426085
0.0004967052051304305
0.0005811808863348052
0.0007095057570810238
0.0008858539736461761
0.001111237548325315
0.0013809919735895378
0.0016826831371354793
0.00199513666754092
0.002289237806137499
0.002530804496333013
0.002685524397334931
0.0027251380400949467
0.0026336518896759166
0.0024119420380778445
0.0020793562504718374
0.0016715206508662302
0.0012346032958750978
0.0008173606129914759
0.0004628009234154944
0.00020148407704125417
4.518718928771451e-05
3.452461435142536e-06
0.00017434857910974175
0.000805925636138756
0.0022660083037792126
0.004859724715332155
0.00863602064200387
0.013363828332632818
0.018486977195452586
0.02303119412992057
0.025718862950570794
0.025875437068452165
0.02417507394370964
0.023300619721900125
0.019888769007667225
0.01533600604340158
0.01102568580505449
0.007499918070934918
0.004884056324212281
0.0031159655788108227
0.0020246379626218747
0.0013854826370819466
0.0009964534906316564
0.0007167852384690639
0.0004837273763421515
0.000304459318179733
0.00018249905099934722
0.00010862511394125544
7.025226798306557e-05
5.650690230250949e-05
6.22448313322146e-05
9.00389112758223e-05
0.00014970339186577683
0.0002554532648039439
0.0004212598951937289
0.0006553616431363089
0.0009551084108440673
0.001303437515714957
0.0016682175060065163
0.002005196261249237
0.00226467165966513
0.002400935630032958
0.0023825594588929586
0.002201004579197733
0.001875027794521676
0.001449262129610923
0.0009868534177967026
0.0005577729042591916
0.00022558466067409917
3.594816582291981e-05
1.129033216381185e-05
0.00020520257963393151
0.000820337378938471
0.0021845322734991434
0.0046135885623644545
0.008181034902718964
0.01264564222422123
0.017564642434641765
0.022332073717544063
0.02620819653896359
0.028434134650931937
0.028573123621139205
0.02800878370549016
0.027062761988705622
0.023542242145424486
0.018735782845187596
0.013950826176266334
0.00977935341848703
0.006463830764973281
0.0040624627093165154
0.002479671030624995
0.0015017117359992695
0.0008916306365625342
0.0004721676783730372
0.00018086338366026897
3.02189790743004e-05
2.4548385135435525e-06
5.441291977745651e-05
0.00013544294692626038
0.0002000823260713929
0.00021869790346222263
0.00018387301913681245
0.00011134638486636277
3.5443629044153815e-05
1.7606033166071558e-09
4.659997863704177e-05
0.00020253469860268615
0.0004711943165485995
0.0008273578223808947
0.0012190884263259213
0.0015767789169700154
0.001827910366210718
0.0019145052543441492
0.0018090087397658046
0.0015241581733090367
0.0011137279734390656
0.0006633221784921243
0.0002732316763894037
3.753689871114423e-05
2.4692855181778728e-05
0.0002742668857201484
0.0008937155675326423
0.002159622441176184
0.0043643434685106935
0.007633285454614863
0.011780293194667665
0.016393209610421216
0.020990187900588188
0.025071414591707444
0.028203417597339527
0.03005861856595853
0.030301500272499282
0.031549343730774934
0.030558059852389984
0.027014647133395308
0.022065668376154014
0.016909370308062232
0.012164056426408942
0.008170300967366552
0.005102654085238726
0.0029588942699796065
0.0015732700052840678
0.0007148879545295474
0.00020572503801683488
2.9370301984986403e-06
0.00010811434985324761
0.00045130842390453505
0.0009190571223892539
0.0013837717090139435
0.0017301024471307023
0.0018777646647125021
0.0017963591679983168
0.0015095393283032197
0.0010878891252353747
0.0006321211508463434
0.0002498619590893325
3.075711815987172e-05
2.5091949165582287e-05
0.00023085178494963008
0.0005927475884054647
0.0010143100432282268
0.0013810929628231899
0.0015899473283755915
0.0015773073097257923
0.0013389289273000797
0.0009355222296440289
0.00048211059389439076
0.0001235167862911273
1.9926605561590356e-06
0.00022517968399383251
0.00085547163707138
0.0020142589766809498
0.0039494296082519505
0.006806963552934018
0.010496684297405039
0.014696737711730253
0.01900152290467737
0.023012265929087082
0.02638328663265158
0.028936234382006105
0.030612396088456575
0.03107069109771727
0.03461497542835484
0.03361556035876006
0.03014202493488229
0.02516284680026857
0.019734473630025416
0.014489735785562324
0.009859632686782294
0.0061303672303864845
0.003400868124854505
0.0015843880305340247
0.0005049808406710546
2.859807136816436e-05
0.00014395308164338936
0.0008142993013250377
0.001878339756166408
0.003108014164634482
0.004254014917195369
0.0050926780913871615
0.005467043621974616
0.005314340337729466
0.00467478444172982
0.003680221808550492
0.002525002414412325
0.0014246329830787771
0.0005705391223930126
9.014697447896921e-05
2.0867661565073416e-05
0.00030428506327333314
0.0008024726093758373
0.0013336148649054768
0.0017190602689662517
0.0018307544599354356
0.001627084027188125
0.0011678412968082934
0.0006039784477721544
0.00014443659024176514
8.211394776992983e-06
0.00037352645039502526
0.0013411238379667013
0.00297747520832126
0.005378226165709326
0.008512158480450682
0.012171153353257932
0.016065017522473725
0.01990398542265453
0.02339290255388061
0.02629892574255979
0.028588216967211474
0.03030653944754855
0.031052605137936135
0.037033774695847364
0.03606850746915101
0.03276088804824796
0.027874034152659027
0.022286776030968923
0.016630384614766784
0.011422881100652177
0.007063371794091024
0.003760950024818239
0.0015341704560412435
0.00030529078445038
1.8687195247984822e-05
0.0006862516045151883
0.0021975756529194136
0.004263130708941633
0.006502038093443154
0.008508777669729552
0.009926019200492997
0.010508283493045877
0.010164433726587324
0.008970977111867123
0.007153535253487432
0.005040112810293092
0.002994895158481666
0.0013457250312873827
0.00031973055970083153
3.8669476334990735e-07
0.00031566340774210147
0.0010601731414557512
0.0019473261399195923
0.0026802206536839478
0.0030253435239187597
0.0028716558970687776
0.0022609364148024583
0.001381668417698579
0.0005277991515200163
3.228168320570535e-05
0.00019130039037518955
0.001187430224030713
0.0030137412287378974
0.005550639122185104
0.008624400222535066
0.012020988005915414
0.015566401035703073
0.019088690757946454
0.022352113150415
0.025166193937297632
0.02753199085928717
0.029475171087081028
0.030525993065917783
0.038662961069537836
0.03777004809210279
0.03471307736733578
0.030043194330851772
0.02443313246352136
0.018485833760301166
0.01279344425670032
0.007867084311546573
0.004036720427030409
0.0014492055992111372
0.00015389558121911234
0.0001833988272194995
0.001543029984064044
0.00401686982364859
0.007165818686336994
0.010439116104167475
0.013265971792027096
0.015156074543844144
0.01578647380158796
0.015058307810026985
0.013112309270043459
0.010299664562783114
0.007113306112873419
0.0040923644613323545
0.0017182741222082545
0.0003229486644650917
2.7309307900592032e-05
0.0007233598586936862
0.002103724357062698
0.003733393539003542
0.00514886573240147
0.00596372038456557
0.005957252321187959
0.0051265082749646935
0.003689489057872474
0.0020388762284941787
0.0006567250067125648
9.85323001749217e-06
0.00043617253906995856
0.0019465296878445296
0.004251438239918948
0.0070683133254518605
0.010205090008998753
0.013576149592453311
0.017067534590145778
0.0204497013372436
0.02351499589568495
0.02621742639847575
0.028485953284712366
0.0298015848257759
0.039412198722561
0.03861769032203672
0.035868411160671805
0.031519827841638044
0.026031641384150456
0.019949518324870748
0.01391256755788101
0.008529308282784937
0.004251733030330133
0.0013678210463811211
6.464851095149567e-05
0.0004503291113571579
0.002487985902722637
0.005840860144573901
0.009922581051046018
0.01402383351338666
0.017429375943520207
0.019543529086984635
0.01999665017305037
0.018712262800369892
0.015921380359902038
0.012119999291781185
0.00797686702063883
0.004207886940674037
0.0014412376647785657
9.875996594357397e-05
0.00031706469539426034
0.001924486675690447
0.004478993992939493
0.007360529521533802
0.00989987498661743
0.01151826337462411
0.011848820733156615
0.010814471655282003
0.008645271248185602
0.005831399938342638
0.0030219272408806984
0.0008916619212299138
7.1011800220676055e-06
0.0005582868068346039
0.002222507991025614
0.004626268980284445
0.007553748793371699
0.01092517813853372
0.014616272795520321
0.01836149488386371
0.021891574096424872
0.02505816230359135
0.027656213104414774
0.029149063535062664
0.03925628921716687
0.03857115988148325
0.03615205094854463
0.032189256493980654
0.02694809393456697
0.020899392558165905
0.01469652992661589
0.009015802075893833
0.004413411427279903
0.001310777403852138
2.3651236295064662e-05
0.0007144651646794976
0.0032837504945485026
0.0072807568997485216
0.011995751764030897
0.01659538441553199
0.02026158303703764
0.022335739215629445
0.022438459516852253
0.020542020902114894
0.016980266111724873
0.012392161037396241
0.007607732094289801
0.003496072865310776
0.0008036697023582592
1.3395377258055661e-05
0.0012514441556314051
0.004260987259120981
0.008448693164380693
0.012996482931978645
0.017017801334436936
0.019728986532631675
0.020601584440735742
0.019465874374095207
0.01654392102319723
0.012405625086971786
0.007856563087429849
0.003781441656675698
0.0010019826864286529
5.218719713182943e-06
0.0005993265972257934
0.0023713237000936045
0.005043589615345357
0.008470795248109203
0.012459957818632591
0.016668754776109216
0.02072731421460844
0.024349893254517332
0.027193357093940586
0.02874191538369953
0.038227939945773046
0.03765098757712366
0.03555647456861392
0.03200251339109161
0.02709517956836579
0.021229433921081734
0.015046805607643933
0.009257132239165035
0.004488291252379658
0.0012658894135182685
7.699331485280626e-06
0.0009118530210949386
0.003819661843917485
0.00819102443174873
0.01322910599367531
0.018021174077080402
0.02169269068758233
0.02356266333685997
0.02327002967394164
0.020846786754694365
0.016721998345710115
0.011653099028499904
0.006594626718580809
0.0025263822726159773
0.00027233378241697353
0.00034382777133476776
0.0028373407709703902
0.007407294387162454
0.013320742569181285
0.01958501799369691
0.025125762151584456
0.02898245130024
0.03048428279217786
0.029373235660983973
0.025850219165099962
0.020535341325566038
0.01435067451336223
0.00834899820422677
0.0035616520789338827
0.0007615995044743993
7.3910795151453955e-06
0.0009583253173606898
0.003295569689670588
0.006772748267181399
0.01107683962532679
0.015744158769729424
0.020272682255050935
0.024229419743460198
0.027163810616546245
0.028627173799461707
0.03639521938557301
0.03591885625838267
0.03412927594439784
0.030981235849401333
0.026460112856181512
0.02089428155755417
0.01489773590318905
0.009185257630926102
0.004422283950949472
0.0011998946752115852
1.459993900721237e-06
0.0010455244048182578
0.004132207464786789
0.008665343953847054
0.01380054217268639
0.018589146722017124
0.02213949024563477
0.023776334207160982
0.023168350039738557
0.02039902377803686
0.015965088071622967
0.01069938611468868
0.005628956261871194
0.0017919133752023837
4.592352044124635e-05
0.0009037996465778623
0.004427875276114268
0.010204458012599834
0.017405063816975225
0.024924641207862443
0.03157187121254793
0.03627782848159638
0.038283320481755506
0.037271510180659044
0.03342063887713083
0.027367810232569498
0.02009149686655856
0.01273602952006563
0.006439638194911288
0.002136139404254706
0.0001630772695337121
0.0003701471894448101
0.002450216478491637
0.006043706205630699
0.010677751051955335
0.015737124810464864
0.020582937297823505
0.02466332944584581
0.02748683390644677
0.028720688669956817
0.03383968401736054
0.03345517660034377
0.031948390881067386
0.029196026579775453
0.02509732454028593
0.01992459121848917
0.01425400317299228
0.008783406988159529
0.004187933708713639
0.001089071456767406
1.4448485716266868e-07
0.0011453697786806768
0.004302470867215202
0.008853828130592902
0.013946563971238108
0.018634737903269253
0.022040283067110807
0.023510008078676595
0.022739761814586458
0.01984150285211105
0.015337980861298974
0.010082234443543113
0.005113214415674986
0.001471119499995512
5.6904287877868895e-06
0.0012129296790161133
0.0051319105143812
0.011322513806634377
0.018930121860729933
0.026826368168147197
0.033800759127334316
0.0387686771860799
0.040957087531974044
0.04003527791511258
0.03616702350298898
0.02997587886914536
0.02243162637175088
0.014679781910900302
0.007849141325194103
0.0028829716657151386
0.00033222262579925114
0.00026811640407064765
0.0024164149476896815
0.006299503501847523
0.011277200513738761
0.01659637083240425
0.021522709181084218
0.025455498246609302
0.02795037895639802
0.028827628206263164
0.030650172796146947
0.0303504476901273
0.02910589222781869
0.026740619806385285
0.023098719467945804
0.018403845488826932
0.013183667867731227
0.008098940204588007
0.0038104013971619203
0.0009409924017479355
4.2899493741277274e-06
0.001216134439545849
0.004346200078626435
0.008788981731528972
0.013721972475774415
0.018238978058823508
0.021503504084329324
0.02289706669122074
0.022135685029605293
0.01933177283926948
0.014987248638257249
0.00991559627073131
0.005103861314837095
0.0015373196559565522
1.8274170239600654e-05
0.0010128873223553179
0.004555547019573143
0.010230221781685431
0.017233725318955374
0.02450982838258702
0.03093001938650908
0.03548773942387489
0.037470368331218654
0.03657863155912774
0.03297248252111871
0.027236845879064945
0.02027503910073518
0.01315111889366163
0.0068923154000865945
0.0023488979925498166
0.00015800090782586504
0.0005197221286307522
0.0031562369221034997
0.0074797022889455484
0.012726934636299939
0.01807511317829446
0.022777403397361073
0.026275746327875063
0.028252118214220582
0.0286878775826715
0.026935834279345247
0.026715654277353177
0.02571227015412133
0.0237250636698651
0.020573250006612552
0.016437246118644805
0.011783834957063017
0.00721476265506692
0.0033504708870666484
0.0007869396874170974
1.1795177393892224e-05
0.0012207603875789667
0.0041886335197077506
0.008355061305584378
0.012967473059288762
0.01719819819883791
0.020283347379009914
0.021655964987810025
0.021050095706237622
0.01855561373782874
0.014611635935451714
0.009936695437069945
0.005405873470408669
0.0018952366544139959
0.00012168776179326129
0.0005079414150671324
0.003098792010683632
0.007545435603303841
0.013161927928399741
0.019043761150280725
0.02422663007029025
0.027856238447319263
0.02933714730649155
0.028434580262524836
0.02531093689778429
0.02049202800126973
0.01477088671819946
0.009068067457268124
0.004252739415557718
0.0010372695356190146
5.7204090820664294e-06
0.0013326830374440287
0.004682829658745244
0.009396549875619092
0.01467711020162144
0.01973138143860186
0.02389229434305224
0.026721135818621827
0.028065440904705256
0.02803993235580822
0.022847497499992302
0.022702005972463416
0.021914857705877776
0.020289637457821308
0.017650935851350483
0.014141841182317991
0.010156686487134962
0.006215876575587962
0.0028706476198767533
0.0006583676659444144
1.4547943682925436e-05
0.001106410180949002
0.003729953430306143
0.00740177756952048
0.011476997630210055
0.015244912685536318
0.018047091223448306
0.0193894631673219
0.01902955969882305
0.017022509609446342
0.013715899751935894
0.00969242587484038
0.00566898715859736
0.002369135285282117
0.0003918086158746205
0.00010060997237523312
0.0015548947451540888
0.004496437880127451
0.008395014771172314
0.012544778434741128
0.016193695597477655
0.018681412701107746
0.019559725231898455
0.01867323687908955
0.01618559213551331
0.012547421193205779
0.008413168240852241
0.004523427502653116
0.0015617337465303775
8.303834596985204e-05
0.0005132583722244437
0.0028896294825205603
0.0068071422598893
0.011606039597717494
0.016556876728279272
0.020984277126624068
0.024363978893359863
0.026408985098198612
0.02711881389946651
0.02668765253809853
0.018590056205637202
0.018512260029976853
0.01791121120283845
0.016620480255411577
0.014496907365565338
0.011653728964437072
0.008405630309849909
0.005173730442645159
0.0024131277878312977
0.0005712720685355045
7.314579490348473e-06
0.0008560111642266629
0.0029529114316139767
0.0059173700247977
0.00924077278805004
0.012358833415825875
0.014744294041116459
0.015994359740791556
0.015898851859244906
0.014476618342978519
0.011972740656704527
0.00881604876887547
0.005543525103220496
0.002704422762071381
0.0007612136808472749
5.580838169572401e-06
0.0005054569971740803
0.0020936905023927746
0.004401154965078056
0.006928683450499338
0.009144181127046127
0.010586550179505771
0.010955849012925269
0.010172367313819522
0.008393083236462973
0.0059827076066063245
0.0034454992672100166
0.0013317242743046097
0.00013395348000440677
0.00023765599897005972
0.0018703093692723392
0.004920287562463271
0.008960223440242662
0.013410367221098573
0.01768122226942766
0.021258882257871835
0.02377594423246457
0.025079614586010334
0.025266790841921224
0.02455104348831618
0.01441194533455194
0.01439037525857947
0.013941425479761656
0.012946132630516059
0.011311874766949915
0.009129828626567076
0.006635075001043028
0.0041416545659879464
0.001991990797199835
0.0005223364026633372
6.498077756699519e-09
0.0005276926778142267
0.0019941792122507066
0.004133355304159991
0.006583158573545017
0.008935885541388204
0.010804203470786158
0.011883885855242634
0.012003493658124061
0.011151933479773902
0.009478691091928726
0.007266142985598279
0.004878501335800114
0.002696073984884232
0.0010465962923946845
0.0001462338690604075
6.153162743567876e-05
0.0006999791470162242
0.0018316316967561658
0.0031381993214665803
0.004280272567905713
0.004969484461264063
0.005030724217121091
0.004441649793567225
0.0033410136479827134
0.00200407211509425
0.0007901693383571786
7.330074064039494e-05
0.0001716018405202697
0.0013072935303050188
0.0035392769409921124
0.006676458443283865
0.010341290082747534
0.014087321728924304
0.017487015258217154
0.020182249635409353
0.021934603340098127
0.02267637360061511
0.02253269178389598
0.02168929873045983
0.010569786655833347
0.010587972572860422
0.010256480925043188
0.009509552199013423
0.008310432183562607
0.006734579687110335
0.00494529338956284
0.0031555276097460735
0.0015960340844925628
0.0004897501312443861
1.1639168152189436e-05
0.0002344194632953675
0.001100002818595942
0.002448578348841396
0.004052182968566397
0.005646654661865307
0.006973594135435841
0.007821679780465267
0.008060450296760505
0.007660590585391642
0.006696890246024695
0.005333072685423424
0.003791064709221305
0.0023100070965348415
0.0011024355872440122
0.0003157823474654785
6.662917049429638e-06
0.00013333914187043633
0.0005683195239601254
0.0011290879631771513
0.0016209782204032294
0.0018833646134916603
0.0018291070804866924
0.0014684698399224075
0.0009118633490804345
0.00035054883102921653
1.9243118596079363e-05
0.00014860552210589227
0.0009191226023927982
0.0024270267642495388
0.0046378460458566155
0.007367371962267308
0.010336628363530954
0.013239143856863277
0.01578735404452052
0.017742594083983102
0.018950486653597796
0.019375228710140024
0.019112378742763222
0.01829419316541166
0.007279587061236895
0.007318266583621111
0.0070731296375431555
0.006525531419268505
0.005686462110420339
0.004619201470837589
0.003428839660156465
0.0022454918412163406
0.001206754960111175
0.00044039205421194977
4.366002403834216e-05
6.12764220691052e-05
0.0004728243628108525
0.0011989818252199456
0.002115400042881824
0.003070731911097818
0.003910288528249082
0.0045007007807383636
0.004751341828560353
0.004628540571930161
0.004159920847244326
0.0034279014079977347
0.0025533869918165177
0.0016725800765806833
0.0009111842093335807
0.0003610013445318291
6.366021453518015e-05
4.997195484544648e-06
0.00012165174657472541
0.00031880563720194406
0.0004954811367729555
0.0005718468534385687
0.0005121921974415605
0.00033798766047656525
0.00012765035190694763
2.7130263317051884e-06
0.00010334523087318854
0.0005586087958300333
0.0014580949264010325
0.002829075851793753
0.004619710833944825
0.006703522141597679
0.008904793739537484
0.011028832913883783
0.012887616128830241
0.01432166377010769
0.015222273444947223
0.015549179109455243
0.015336311281016288
0.014655993020525969
)
;

boundaryField
{
    "(inlet|outlet)"
    {
        type            zeroGradient;
    }
        "(front|back)"
        {
            type            empty;
        }
    "(top|hills)"
    {
     	type            zeroGradient;
    }
}

