/*--------------------------------*- C++ -*----------------------------------*\
| =========                 |                                                 |
| \\      /  F ield         | OpenFOAM: The Open Source CFD Toolbox           |
|  \\    /   O peration     | Version:  v1806                                 |
|   \\  /    A nd           | Web:      www.OpenFOAM.com                      |
|    \\/     M anipulation  |                                                 |
\*---------------------------------------------------------------------------*/
FoamFile
{
version     2.0;
format      ascii;
class       volScalarField;
location    "0";
object      nutCoeffs11;
}
// * * * * * * * * * * * * * * * * * * * * * * * * * * * * * * * * * * * * * //
dimensions      [0 0 0 0 0 0 0];

internalField   nonuniform List<scalar> 
1000
(
0.10101557824133583
0.09201522007872567
0.07103674395807501
0.04124240192974071
0.011759192622258196
-0.010504354370093873
-0.021974115917900505
-0.021799357774264415
-0.012253622905571781
0.0018704413908663846
0.01609002845095129
0.028036656121911443
0.038742942565225626
0.0504373225284221
0.06354539718547936
0.07783649175404092
0.09298497092410454
0.10857946345059408
0.12414034224243271
0.13914393484041226
0.15305082593603347
0.16533656550209744
0.17552069378274557
0.18319433990311387
0.18804220425524257
0.18985947758248148
0.18856279858938313
0.18419401272294902
0.17691767036405656
0.16701149037147317
0.15485111523688927
0.1408883267093807
0.12562732558884854
0.10959732303680028
0.09332530292126315
0.07731168920920983
0.06200815164850911
0.047800587570612285
0.0344278833741575
0.019747555067685905
0.0026660713430002626
-0.01453178439620986
-0.02735768460277122
-0.030699180244825427
-0.021663050691354047
-0.0005016276437348101
0.02944638467224893
0.06074879158322046
0.08299536332572656
0.0924447449170251
0.11331378929962663
0.10666108207823102
0.08993612386503506
0.06289797330039922
0.031706840975624914
0.003109140904556547
-0.017931153721476904
-0.028305427360624778
-0.02763748341296479
-0.019125852690747798
-0.007808457137658961
0.0020168574300420054
0.010331478119867458
0.01976790842243533
0.030953710292807437
0.04366417475708942
0.057562237596333304
0.07221114343827023
0.08709553739117265
0.10164918453417221
0.11528672363753664
0.12743755152003122
0.13757770434336777
0.14526042895060556
0.15014096637009122
0.15199606085030085
0.15073689319235817
0.14641408861839422
0.13921493961926582
0.1294524449276633
0.11754698286951838
0.1040000158562346
0.08936573358620288
0.07421774381451544
0.0591174536637139
0.044585169379365665
0.03107570347937347
0.018959759050772487
0.00774651623472334
-0.005173792053385693
-0.01983040586281483
-0.031866574068958556
-0.03594729716173276
-0.02826113767357429
-0.008582242022952827
0.02021520003266984
0.0528713139905236
0.08172154123576764
0.09945853817736898
0.10620461689804343
0.11943888609782852
0.11525876523495754
0.10417865192303491
0.08302789516380377
0.0542507791073112
0.023229880599041023
-0.0048197282013090585
-0.025469781735589454
-0.03598447232718104
-0.03710351498586964
-0.032868559216881234
-0.0282565573917109
-0.024469352061392086
-0.01928804158041592
-0.012062648266391345
-0.0029710775054098944
0.007680087681660907
0.01947008852182542
0.03188740842989186
0.044359677319432335
0.056288026335744014
0.06708298225673345
0.07619942689013627
0.08316993051540635
0.08763279490722248
0.08935463680566744
0.08824566901140507
0.08436607497665018
0.07792299110248359
0.06925734585130769
0.05882183055297861
0.047150101307209195
0.034821795190470954
0.022424642302394545
0.010517136246744024
-0.0004032532776057483
-0.009926573169595526
-0.017748528067922837
-0.024436967098060917
-0.03230483754528079
-0.04011422775964376
-0.042495436069116176
-0.03478792414526896
-0.01563252061004255
0.01245245154830264
0.04476793307028061
0.0754332787293575
0.09813539443080357
0.10970969630714926
0.11359371576619101
0.11808572555228788
0.11605225573586182
0.11107715789260196
0.09797970863762885
0.07541026180712411
0.04655155167216645
0.015835440161196007
-0.012106457499866689
-0.0330844086002065
-0.04534422278890203
-0.0507608498114765
-0.053445385826195055
-0.055461570966576244
-0.05570271585983726
-0.05368524870203844
-0.049509324773312186
-0.04341814664068774
-0.03578291251342734
-0.027078508462458413
-0.01785236978161085
-0.008688800364638307
-0.00017088765234074045
0.007156823824692323
0.012824642533748038
0.01646880338842691
0.01785717698226441
0.01690651375810053
0.013689770866260312
0.008432189471710299
0.0014958154448636704
-0.006646735781129474
-0.015447980998571993
-0.024325904472262808
-0.03270728217696973
-0.040068687107568515
-0.04597149490318296
-0.050088817415749776
-0.052222090377345674
-0.05282150941546309
-0.053131801326229015
-0.050879344365322356
-0.041265203974691286
-0.02174036961986341
0.006210071475312154
0.03810817534124735
0.06872555348829625
0.09293853470504924
0.10693707145215006
0.1118200983332652
0.11321720269212793
0.10889355858904416
0.1082623019763708
0.10877743932253206
0.10443537189172067
0.0906946313876831
0.06821324649256429
0.039915771639073006
0.009646982932479382
-0.018111105853149238
-0.03979397591779751
-0.05469796351023255
-0.06485625047717794
-0.07254960371046422
-0.07806016197337541
-0.0811888292611884
-0.08195083182010209
-0.08051577513127153
-0.07719307540581963
-0.07240750175902146
-0.06666732968368633
-0.06052742479007939
-0.05454951736557376
-0.049262408444204146
-0.04512332838904313
-0.04248410059158301
-0.04156370571910195
-0.04242972803965055
-0.044991451579217134
-0.049005137067230614
-0.05409250405939408
-0.05977075128548311
-0.06549237104552906
-0.07069011240060676
-0.07482365372720434
-0.07742366569372575
-0.07812823991232795
-0.07670983765659636
-0.07308985430023952
-0.06745269090169727
-0.05955641641576658
-0.04672891863272757
-0.02623339713844418
0.001612416664189713
0.03303594443683055
0.06295662688235598
0.08693802379418172
0.10161951973464001
0.10611605486439524
0.10503138848009935
0.10479225303135387
0.09266889289594364
0.09239716734042532
0.09677725535990758
0.10019323581516137
0.09606344924620233
0.08275725993748502
0.06140893428155628
0.03442905262792894
0.0055095474701636685
-0.02109183456819183
-0.04250011272646444
-0.0582110113908569
-0.06999025623315534
-0.07924420099221516
-0.08606039030959911
-0.09039088552699853
-0.09235068608067444
-0.0922032089159123
-0.09033560789733332
-0.08722586459407895
-0.08340466594280706
-0.07941369025742098
-0.07576370336906378
-0.0728941780745037
-0.0711376942407222
-0.07069192746950805
-0.07160143043624992
-0.07375193351564412
-0.07687829776815171
-0.08058579293117744
-0.08438356232355995
-0.08772749375328152
-0.09006795095061244
-0.09089862995301601
-0.08980166934295951
-0.08648481037646258
-0.08080756469171119
-0.07279435287126264
-0.06233872143979567
-0.04789794786080792
-0.027237188375687334
-0.0004315163412650727
0.02960247977216564
0.05809019157793279
0.08075061552967876
0.09482740244112599
0.0990858798798837
0.09522841309157602
0.08999846711360565
0.08928785090371716
0.07141111773064704
0.07035490127823868
0.07625855391595164
0.08487332979700558
0.0890130802719475
0.08547613683956715
0.07379753321489135
0.054773124042054464
0.030571960001992266
0.004942116140916201
-0.018107939632761614
-0.03592916824421543
-0.04918867254452707
-0.05970983140193275
-0.06775731376887993
-0.07326594029158916
-0.0763396330013532
-0.07723598941173712
-0.07634028686239104
-0.07413092495487411
-0.07113923937108087
-0.06790577245268749
-0.06493633929423305
-0.06266021127162333
-0.06139387970313473
-0.06131321743201713
-0.062436749133052666
-0.06462220552418686
-0.06757724894847125
-0.07088389016789186
-0.074034605888306
-0.07647754994822577
-0.07766560077174817
-0.0771062575763817
-0.074406953248912
-0.06931221812466332
-0.06172956177546867
-0.05174157169831001
-0.03906257340527461
-0.021603700786919623
0.0017080524629877246
0.028291807495222792
0.05379903507756249
0.07394107844326905
0.0861832409890054
0.08967326750177596
0.085019122293683
0.07561884881783332
0.06877107692090735
0.06883604187616475
0.04809344297984929
0.04524491443891273
0.05009676801101348
0.060322812851364524
0.06951408990516436
0.07388495935987181
0.0719419980621794
0.06315387151044477
0.047956496534479975
0.028656133015627135
0.009093302757036814
-0.006986205030715602
-0.018892053970354733
-0.027987175555382098
-0.03454243779995549
-0.03853211218857958
-0.0401045248021945
-0.03956422426604722
-0.037343106446419916
-0.03396328800931883
-0.029993961850352843
-0.02600527565174756
-0.022522361702935836
-0.019982260013858825
-0.018697357073261596
-0.018828535083694954
-0.020370152528002432
-0.023149209766066582
-0.026838908466028287
-0.030985885634743426
-0.03504863359740814
-0.038444212144875686
-0.0405984628586064
-0.040996230082551426
-0.039226951534901446
-0.03502208897053614
-0.028281363610293493
-0.019085499598408693
-0.007159357404100054
0.009136654094134486
0.029371874886089652
0.04963078191881655
0.06567552535907979
0.0748323531440465
0.07655406644791779
0.07150883148461319
0.06143017579194969
0.05029123193620945
0.04451949341382374
0.046435031706316215
0.026212689359822832
0.020925262551845635
0.022478261917945237
0.030527975916947427
0.040459184702213206
0.04887301451067863
0.053987889342897596
0.05455807206650227
0.04961522160549448
0.03964525977453286
0.027216259717910366
0.015887645862639
0.007560784405592278
0.002026066449654197
-0.0008382942864055602
-0.0010976955392525698
0.0010033654226724897
0.005063366616297777
0.010556771788302229
0.016875076684313872
0.02337369050507664
0.02942102243120731
0.03444669995653107
0.037985962016032875
0.039715957127328526
0.03948185708253539
0.03730967132479546
0.03340474430344207
0.02813558985300106
0.022004380237372532
0.015606589612137041
0.009582903142129243
0.004568132152684972
0.0011402107160976356
-0.00022627111698784948
0.000801480213460591
0.004386656340624268
0.01050803326903442
0.019256704727343584
0.03103214711467254
0.04405049843814959
0.054534134424698164
0.059636388112759085
0.058720924034446884
0.052817058599349626
0.04337769262049508
0.03241391097257692
0.023450028610794146
0.02105084433764807
0.025496435080344083
0.00918834764549357
0.0013325670757913508
-0.0018338865906209836
0.0009589107140674885
0.0073560466104300925
0.015039510822900894
0.022597151123418046
0.028760477296928873
0.031858348491875355
0.030825791703101776
0.026448964996764645
0.02108711583124514
0.017349047304065782
0.01638588911728866
0.018291766243397338
0.022877835449626575
0.029770387141093757
0.03843822553613361
0.04823090653219015
0.05842491647449144
0.06827503991759115
0.07706707526039613
0.08416842555739223
0.08907363860084043
0.09144036611531078
0.09111421072535798
0.08813943482504663
0.08275516299298685
0.07537700918842795
0.06656560074227301
0.0569849983953005
0.047353126746351386
0.03838989856676863
0.030764847698581475
0.025049087951295634
0.02167501207772991
0.020905706471710073
0.022817431236645445
0.027241935135627175
0.03309061845068865
0.03778020394716401
0.038814646353020864
0.03530300824805395
0.02832630449989824
0.019693190578856892
0.010868390868591515
0.0034382052380216156
-0.00021353273573743658
0.002191891181245057
0.009305973579075701
-0.00026142847040569673
-0.010254170176715038
-0.01843476226716108
-0.022546327253320286
-0.022779499702633946
-0.020094462180439688
-0.015151825229844273
-0.00871963127223946
-0.0023878657495407895
0.0019902584005121625
0.0036577801391119357
0.00340462757633426
0.0038624661468648564
0.007166722290148041
0.013575122314720486
0.022772122272613434
0.0342511218079187
0.04734708962601034
0.061280379428254796
0.07520856098232125
0.08828253658707934
0.09970337474530049
0.1087751999074784
0.11495155707921166
0.11787083109229377
0.11737930405744786
0.11353962987372947
0.1066247879340406
0.0970976557824736
0.08557836991239472
0.07280137085701892
0.059565310806275695
0.04667988476821425
0.03491256218674749
0.02493823437720982
0.017296658157162175
0.012359228841043884
0.01030814904768469
0.010770533355464882
0.011550773580879657
0.00999366791594114
0.005292270379809854
-0.0017533309953075677
-0.009175734986714312
-0.015233052108818678
-0.019004467911028656
-0.019713789691952425
-0.016373711398118607
-0.008867111070605541
0.0004777356821515792
-0.0006269943498109322
-0.011845892573239198
-0.024189383971674253
-0.035088291963120063
-0.043086792129708305
-0.04791383683602336
-0.049430968251168196
-0.04769456459671268
-0.04363135491519873
-0.038969568528036846
-0.0352023209180827
-0.03277216205513299
-0.029645074078639665
-0.02348556082223533
-0.014012743072335092
-0.0016402340979515646
0.013022117076934325
0.02920468522998841
0.046026538220651364
0.06255204261868234
0.07785145927530836
0.0910610414653863
0.10143821550653605
0.10840816163684662
0.11159843962497695
0.11085990251286301
0.10627306183834374
0.0981397854189058
0.08696141968193084
0.0734048850716437
0.05825981287709772
0.042387663588283185
0.026668616009244413
0.01194705907212146
-0.0010199514076239783
-0.011607072358157219
-0.01935631489780751
-0.024000204144075034
-0.025962652407677624
-0.027729641470447538
-0.031388157107288456
-0.03642182947839883
-0.04120208342385978
-0.04384450255795367
-0.043286115309918265
-0.03936503947871233
-0.03215095594406375
-0.021908653944909418
-0.010153317597033154
0.0004926811519294495
0.008118625627560432
-0.0031235458057232227
-0.01789040224484437
-0.03384673222236136
-0.048607402607007404
-0.06106344055967874
-0.07048926725358003
-0.07632073648320888
-0.0786005520289818
-0.07823727810584102
-0.07650970825990813
-0.0743245771989864
-0.07059191203180311
-0.0635938331506329
-0.05317614936636446
-0.03979605646753005
-0.024108649955773057
-0.006929201922527294
0.010817274072284364
0.02815524901908031
0.044121667002048476
0.057828196289618855
0.0685169757605397
0.07560727244119285
0.07872881044069499
0.07774088817509045
0.07273679462722789
0.06403404082589201
0.05215149611992358
0.037775525425675444
0.02171734797096634
0.004863107897091177
-0.011878866343387265
-0.02763210958811075
-0.04160352498065945
-0.05312875852719326
-0.06170813578471637
-0.06703131477528047
-0.06940150896692882
-0.07072415400906884
-0.07216216411184156
-0.07270185209313601
-0.07090145039273556
-0.06569892979956835
-0.0569457988534768
-0.04514010753523446
-0.030970023701254647
-0.015547316275998535
-0.0012984902550260225
0.009414569692277185
0.024538250564214208
0.014521693072773768
-0.0004954962278983996
-0.018733706609410036
-0.03757636031261676
-0.05555332844807789
-0.07167340855255193
-0.08502112848444261
-0.09488196091329189
-0.1010958920010216
-0.10407303975222658
-0.10442710559674703
-0.10199890354796229
-0.09616501291557056
-0.08697622656654704
-0.07486674374035217
-0.06046411151172974
-0.04455353877666157
-0.0280289973170066
-0.011835018307226363
0.0030956034469047425
0.01590307248902719
0.025855622818815788
0.032394657462801214
0.035166730712487035
0.03404132290646569
0.02911425182195223
0.020697478935120698
0.009296557689070608
-0.004421916022964207
-0.019671644140798156
-0.03559420485343781
-0.05130997845827039
-0.06597033069360632
-0.07880743991922354
-0.08917798714643317
-0.09659858122904681
-0.10076899664253333
-0.1017705452414321
-0.10039436340507149
-0.09687729580557868
-0.09052255878246508
-0.08078765943641301
-0.06771714197907301
-0.05195520733667664
-0.034378166827268186
-0.015956528560812207
0.001837118534359505
0.016366601547931587
0.02585616703336248
0.04602869471235376
0.03828916837631243
0.025107778258548537
0.007618434048728842
-0.011857284140666965
-0.03189440711468538
-0.05152490648181279
-0.06977359894127229
-0.08550233761052412
-0.09768106636360988
-0.10572355375382096
-0.10955663652395448
-0.10964733454890176
-0.1064277399763915
-0.1001235379709518
-0.0910850918623018
-0.0798435951398463
-0.06708035679407856
-0.053583061470646384
-0.0401925702996493
-0.02774544653367778
-0.0170167716218834
-0.008668829718889465
-0.0032087352390571876
-0.0009582874173784938
-0.0020371345302218256
-0.0063592690281414534
-0.013642198445687391
-0.023427384031472286
-0.03511062053151615
-0.04797982653494936
-0.06125969004456501
-0.07415858410575366
-0.08591754661578169
-0.09585616116918126
-0.10341323297002165
-0.10817858178711097
-0.1099136438918801
-0.1084948854188282
-0.10360361160665198
-0.09484024112262832
-0.08224851600234154
-0.06634500112366414
-0.04809663943488546
-0.02860180648695082
-0.008810619328283961
0.010324616104920376
0.027383558804056088
0.040049607054284474
0.04722134516572416
0.06932177707451223
0.06452649420689088
0.05473307397415856
0.04051041868538816
0.023591887752450007
0.005104026664850767
-0.01418446966402702
-0.03344307537654389
-0.051474771296973726
-0.06684218294424203
-0.07829689103745288
-0.0851382215783194
-0.08803655511086245
-0.08802435454249499
-0.0853883848031665
-0.08035559940439757
-0.07331313518675439
-0.06478470508980652
-0.05539465138407061
-0.04582327041241469
-0.03675755200799383
-0.028841612691539995
-0.022631454210518202
-0.018557269095982456
-0.016895878121432003
-0.017754641537439015
-0.02106706933691007
-0.02659969932387891
-0.033969332347489986
-0.04266913068366284
-0.052102473072152884
-0.06162210492711804
-0.07057277754817035
-0.07833446795021994
-0.0843633477829138
-0.08822696773626
-0.0896310650415099
-0.08843556607409717
-0.08442677105553631
-0.07663413051693183
-0.06444068131031187
-0.04856570826756455
-0.030244847030191466
-0.010893397063360394
0.00831282925144855
0.026563596358311473
0.04310645777063221
0.05682935633236323
0.06602703750358166
0.07018162237205056
0.0910692622129723
0.08940964921559448
0.0837516823365685
0.07426425401201096
0.062019422938559915
0.047753154003107694
0.031981464633796336
0.01530507458368374
-0.0012844502964198478
-0.016420728123652573
-0.02871889247870414
-0.037199806430765064
-0.04238113918118061
-0.04531085631767959
-0.04620515221857145
-0.04515644011105702
-0.04239081170741846
-0.03825185520150666
-0.03317402374051914
-0.02764846386687943
-0.02218407392434679
-0.017267822772813923
-0.013327708568151056
-0.01070097802498058
-0.009610184572091757
-0.010148101412120069
-0.012272245065390321
-0.015808890014437242
-0.020466101082142484
-0.02585509417006189
-0.03151816079329416
-0.03696219795554972
-0.041694872842407256
-0.04526147857698142
-0.04727909235032026
-0.04746543419473672
-0.045659389021527455
-0.04183168391979584
-0.03581814636619612
-0.026607296673671635
-0.013726517802167168
0.0018045569701896386
0.01858823664810101
0.03526197895216961
0.050849702441095615
0.06476857969442405
0.07652014009987672
0.08538952231536198
0.09034852809630949
0.09128428653712917
0.10838907173983521
0.1095942899835543
0.10796454210918423
0.10344221518471386
0.09652702562806954
0.08759722958054951
0.07694680733168549
0.06495657730621361
0.05230060854762983
0.03997238735404539
0.02906872126609445
0.020475762658117635
0.014001041796317134
0.008999458045966253
0.0054090418698188175
0.0032562749746807194
0.002463366318460892
0.00285738475816778
0.004187482886671173
0.006148778341997971
0.008410028030067325
0.010642884437557782
0.012550114383482044
0.013890388341787374
0.014498117491106795
0.014296857946368797
0.013305542555031698
0.011637171230744238
0.009489937145257336
0.007131404896681974
0.004876645484784463
0.0030614569870390123
0.0020135558096039674
0.00202297906420165
0.0033153589493676934
0.00603013965602066
0.010206154601499297
0.015776208811863254
0.02276597105205359
0.0317900079605639
0.04299965498658045
0.05547319770227955
0.06809999167045444
0.07989127870384329
0.09018666000332051
0.09862033205491666
0.10491317581109845
0.1087090300855595
0.1095551165670743
0.10755786808059897
0.11927446584433811
0.12271402658344485
0.12430238788248683
0.12389222144095174
0.12159301866331361
0.11752902133166626
0.1118404626643753
0.10474586648760288
0.09662612999820697
0.08804273142199455
0.07964887695831115
0.07203974022745506
0.06532032511417278
0.05934824627278516
0.05421848004701936
0.050042751934885873
0.04685739981962261
0.044626438586508235
0.04325107526474374
0.04258391848547857
0.04244686455400439
0.04265040191923707
0.04301339977874119
0.04338107850860422
0.043640388834054716
0.04373111431602631
0.043652165270711335
0.04346239657615395
0.04327536876536206
0.0432488304788622
0.043568966318696487
0.04443102954867586
0.04601762351358007
0.04847722452029432
0.051904747453626
0.056326459538162316
0.06169110164055265
0.06786825651473202
0.07474326231086009
0.08243449868535603
0.09080724053049831
0.0992459369513088
0.10709241786932883
0.1137919299208062
0.11897430073404154
0.12243021128354874
0.12402828205783305
0.12366064951199521
0.12125328552722657
0.11698703591978225
0.12280605861553992
0.12764973344392527
0.13122990554758945
0.13339993896966376
0.13409418417637992
0.13331008442934666
0.13110532599143063
0.12760237552120335
0.12299509724490994
0.11754591285130823
0.11156494975455249
0.1053741217673307
0.09921489593695965
0.09326418073119352
0.08770865394410335
0.08270485286044918
0.07835926531922058
0.0747274058251661
0.07181736116630397
0.0695964931521043
0.06800119004813042
0.06694823122473913
0.06634713516715261
0.0661121308212887
0.06617302346515862
0.06648389956877379
0.06702864142463465
0.06782301007213186
0.06891253866329004
0.07036642320414302
0.07226753156546174
0.07469982236316479
0.07773392079963957
0.08141283311332673
0.08573935671513741
0.09066670171148856
0.09609387294440667
0.10186626996602477
0.10779608957452566
0.1137009238177948
0.1193313090463188
0.12436164067243459
0.12848297780990556
0.13143732237109684
0.13303529559007798
0.13315704045668303
0.1317468280488841
0.12881207680645979
0.1244316872080101
0.11876636527301052
)
;

boundaryField
{
    "(inlet|outlet)"
    {
        type            zeroGradient;
    }
        "(front|back)"
        {
            type            empty;
        }
    "(top|hills)"
    {
     	type            zeroGradient;
    }
}

