/*--------------------------------*- C++ -*----------------------------------*\
| =========                 |                                                 |
| \\      /  F ield         | OpenFOAM: The Open Source CFD Toolbox           |
|  \\    /   O peration     | Version:  v1806                                 |
|   \\  /    A nd           | Web:      www.OpenFOAM.com                      |
|    \\/     M anipulation  |                                                 |
\*---------------------------------------------------------------------------*/
FoamFile
{
version     2.0;
format      ascii;
class       volScalarField;
location    "0";
object      nutCoeffs43;
}
// * * * * * * * * * * * * * * * * * * * * * * * * * * * * * * * * * * * * * //
dimensions      [0 0 0 0 0 0 0];

internalField   nonuniform List<scalar> 
1000
(
0.004697989755501047
0.00578447708459768
0.0064208002688250785
0.006043326779237318
0.004842793533182956
0.0033779709853290793
0.0020622741942301448
0.0011008840236168438
0.0005243445178276724
0.00023405596454054972
0.00010283296181162269
4.447616270312978e-05
1.5274248407177135e-05
2.2879714145357744e-06
1.5824080381310328e-10
-2.028984205837862e-06
-1.7423547520893677e-05
-5.8029851912122216e-05
-0.00012867366751679175
-0.00022374064938035577
-0.00032722980159785174
-0.00041670842299822413
-0.00047005843320214004
-0.0004727293734334013
-0.0004228752807530874
-0.00033244349708091595
-0.0002236694691383743
-0.00012204154143825258
-4.7943961162301874e-05
-9.676667827088487e-06
-1.2796726250469335e-07
1.704508844379905e-06
2.4590418358033085e-05
9.602877339531205e-05
0.0002329823472152643
0.00043529031687714395
0.0006839690475716391
0.0009450983227045728
0.0012041356025167449
0.0015847250120121115
0.0022963613466451117
0.0034690424608017994
0.005072111903335308
0.006755173991892869
0.00795411893025182
0.00817493992213556
0.007194401512911177
0.0053337961031221445
0.0035545483998018234
0.002456738473376514
0.004381241839940849
0.00555983339031169
0.006702586954110766
0.007069731382259964
0.006391185590956324
0.005032914639384571
0.0034783211006803776
0.0021100942894687613
0.0011396063726697785
0.0005684087065156609
0.00027231918247221364
0.00012576059027370927
4.708889855845233e-05
9.014838791794213e-06
7.738447854892124e-08
-2.1849674085674267e-06
-2.7706510936604347e-05
-0.00010318003401477176
-0.00024078907761011315
-0.0004307974775801034
-0.0006414333822302108
-0.0008269390038810996
-0.0009414549835351825
-0.0009540467670192049
-0.0008594583085285923
-0.0006806476384032448
-0.00046197243329361475
-0.00025513005480454383
-0.00010226120828162825
-2.162036478782162e-05
-3.928229659406416e-07
2.8459316183363105e-06
4.635769048435288e-05
0.00018735581270648783
0.00046323287236346315
0.0008776704001164212
0.0013961412232273175
0.0019524511429696685
0.0025040769893281333
0.0032161277584327607
0.004340644619136898
0.005895504419425464
0.007596117361322875
0.008855518839996397
0.009118268490855445
0.008169501056911119
0.0062242718309505115
0.00398225199159215
0.0023569321463561975
0.0015524571664193645
0.0035898580408485147
0.004714350458493757
0.006211709740830567
0.007374817685971658
0.007527199641620743
0.006675127347026456
0.005195837052174598
0.0035593856328297127
0.002168516830325053
0.0012068173112535136
0.0006321048844099883
0.0003128762615896779
0.00012779311808880353
3.042490101963522e-05
1.1804606991907838e-06
-1.2877148346022582e-06
-3.3826344382533115e-05
-0.00014874124570453496
-0.0003728257984318959
-0.0006934509711786417
-0.0010578238537291313
-0.0013868495914118734
-0.001599446826001242
-0.0016390293313774493
-0.0014927434699992608
-0.0011966443670545363
-0.0008247934761431343
-0.00046577410477876256
-0.00019400333156596142
-4.485787013044674e-05
-1.3895520211300987e-06
3.014074966952765e-06
6.62278232091562e-05
0.00028815875177225654
0.0007390358483299316
0.0014346646852276533
0.0023263879978336803
0.003309125131858368
0.004289629994553595
0.005402227838779974
0.006832231199199447
0.00839827840408807
0.00959642921040118
0.00984444045230004
0.008889557721832123
0.0069302619730949545
0.004521290983643714
0.002431861627445522
0.0012310562829389048
0.0007540542920587864
0.002499260705051578
0.003422944451844804
0.004991324875985017
0.0067353094568473
0.00779778344571595
0.007792525729490491
0.006814913524348581
0.005246762461648948
0.003585409707728245
0.002216216675791878
0.0012662366716056925
0.00067079020616231
0.00029697412004711394
8.475091408998316e-05
7.316468838722026e-06
-2.1558874143740797e-07
-3.093647411620168e-05
-0.00017391437770651795
-0.0004804397045523742
-0.000941161688045151
-0.0014834362223691226
-0.0019911095473485883
-0.0023405526858905463
-0.002440715563146035
-0.0022632402112744616
-0.001852394999320741
-0.0013114367002427711
-0.0007699977068420312
-0.00034269160495748336
-9.185809510871485e-05
-5.71010577712712e-06
1.293805981945568e-06
6.535935580200656e-05
0.0003336483481580465
0.0009190540528468225
0.0018625736162871274
0.0031145933366753314
0.004540936465198175
0.005982268644786733
0.007424745675112575
0.008849161810428658
0.00990189660786962
0.010084117501954846
0.009125046736461024
0.007207709861295252
0.004831661158308625
0.0026200982522884895
0.0011134487338952848
0.0004395914428933941
0.0002349562547113732
0.0013930858596594494
0.0020212335034573152
0.003345787219071949
0.005236044013569408
0.0069534635347678
0.007869773518407999
0.007739772035441931
0.006682460919560663
0.005100076343250948
0.0034837612442796123
0.0021610214399699628
0.0012187743006833653
0.0005782455832171999
0.00019020879689471415
2.6508895107269322e-05
1.5009029595997587e-09
-2.081133913203092e-05
-0.00016725707387975738
-0.00052356275181206
-0.0010940186970568506
-0.0017965349864496013
-0.00248574261784961
-0.0029982044410839024
-0.0032045278810217113
-0.0030507544809460427
-0.002575587976408781
-0.0018981495730426344
-0.0011806776491204553
-0.0005778936770283493
-0.00018855593567723613
-2.355426571457609e-05
6.164174186773584e-09
3.6587764729867634e-05
0.00026776687437548446
0.0008478328805647401
0.0018549071230716844
0.003261879453145722
0.004935675465728174
0.006663846467557786
0.00820279927024007
0.009264673401136294
0.009478513308745566
0.008616285703540755
0.006848543128489593
0.004663929633437169
0.002599149873027348
0.0010870868445399776
0.00030869698168723065
7.004740701843012e-05
2.5156546339989682e-05
0.0005488499310327819
0.0008751617271698603
0.001741865626480734
0.003303125441204609
0.005156893621841032
0.006695150638108002
0.0074493799875872055
0.007224138556954517
0.006147360145989212
0.004622544286459861
0.0030970469930721362
0.0018465162845754668
0.0009265455647823441
0.0003390495589745116
6.391931227070457e-05
7.798622392187908e-07
-1.0034990081348383e-05
-0.00013477684780424388
-0.0004902367120057485
-0.0011030531878668344
-0.0018982914604511502
-0.002721343374232903
-0.00338576598936902
-0.003731282791472388
-0.0036730231351827427
-0.0032268156227062456
-0.002503307199254026
-0.0016737103193335571
-0.0009179456415347977
-0.0003709400478637929
-8.251700042601145e-05
-2.2660048146975328e-06
6.231402083222381e-06
0.00012574156619726007
0.0005312546736799907
0.001336676796410931
0.00255758037793808
0.004100610827041008
0.0057502306094243975
0.007080487057893867
0.007615946367607155
0.007127842682625493
0.005743763489112006
0.003932012094006165
0.002212690421122215
0.0009360110926390237
0.0002417218086492256
2.271022363754746e-05
9.85352542173153e-08
-8.942314156697471e-08
0.0001079541338977695
0.00021289583238529025
0.000600331823462078
0.0015390856437368222
0.0029908886734189813
0.004589678805683069
0.005871104704355667
0.006446908490317882
0.0061332922836488495
0.0050713995635876434
0.003655574341386436
0.0022886547287432712
0.0011996283629522625
0.00047438898486437984
0.00010878985993565753
4.442980449048941e-06
-3.302310481352728e-06
-9.247430176724262e-05
-0.00039767980874538437
-0.0009673304005003788
-0.0017482932051148343
-0.002602373197591613
-0.003348657429995623
-0.003818015091443438
-0.003902647656069914
-0.003586228600742192
-0.0029465832152913663
-0.002131446853752121
-0.0013152183875024199
-0.0006496428696448256
-0.00022222709525375302
-3.3635755243988794e-05
-1.8026506121752415e-08
2.0761983737695053e-05
0.00018638255646848722
0.000622921443737362
0.0013866494667896065
0.0024454972983622113
0.0036427063800026733
0.004539854730063681
0.004659001880887694
0.0039492784472066975
0.0027422435800793766
0.0015222726339759341
0.0006239479395453734
0.0001465944886076065
6.715878738055919e-06
-1.6423506200152474e-06
-3.187587751524067e-05
-5.378292362254828e-05
1.2116616678595616e-06
8.55258249100679e-06
8.241851106955515e-05
0.0004195908682678911
0.0011899266762055156
0.002327454496641039
0.0035632724931370604
0.00453073016375312
0.004875378764537757
0.004452795361115754
0.00345129574098304
0.002258268593938892
0.0012241650820108132
0.0005116757791914946
0.00013345694152160146
9.538012470535271e-06
-6.760979099781234e-07
-5.4472620573342865e-05
-0.0002780564961348693
-0.0007292684966784383
-0.001381614950369343
-0.002133589961166433
-0.0028394488760527217
-0.00335151877685532
-0.0035612617307752554
-0.003427656012785833
-0.002985859199943622
-0.0023350785752328865
-0.0016101975211296102
-0.0009456454238874035
-0.0004413635266045652
-0.00013954143558373818
-1.780921254517597e-05
3.27882308052316e-11
1.8870993966554938e-05
0.00014062882682792637
0.00043404029968375346
0.000915345804850009
0.0015147072794459324
0.0019446845191830177
0.00188744887527233
0.0013907115027754218
0.0007563441549737092
0.0002756378201507367
4.67315151102742e-05
1.6720309113805976e-07
-1.4761465576533257e-05
-0.0001272877400047327
-0.00028345672564072645
-0.00032403811348413964
-1.9609532454865915e-05
-7.95850015045442e-06
2.2098910646890024e-12
2.5744853233457116e-05
0.0002229272322455553
0.0007114224666960696
0.001460645007537598
0.0022854496542431464
0.0028768516071715237
0.0029530690311204877
0.002478066323941378
0.0016933150086512765
0.0009426326571965232
0.0004096875602071529
0.00011620608751432407
1.1210244207492943e-05
-7.383958914802614e-08
-2.735609079996414e-05
-0.0001632575781056875
-0.000457354700915324
-0.0009034078088820617
-0.001442733014500572
-0.0019818243572002053
-0.0024185026606925687
-0.0026688159056573024
-0.0026875137180311075
-0.002477299846185369
-0.0020854978340487836
-0.001590182912355006
-0.0010801127227695933
-0.0006338517315112587
-0.0003031182844497335
-0.00010403280626597191
-1.7806755491817013e-05
-1.3064625420934537e-07
3.679977565229705e-06
4.2188976710402284e-05
0.00014463556532506972
0.0003039662276581455
0.00041747009916783776
0.00036392643819477743
0.00019533929819324778
5.179508353076628e-05
1.9348111058172204e-06
-2.680799486940122e-06
-6.525412291203218e-05
-0.0002738874721026819
-0.000611300525441086
-0.0008702153054541722
-0.0008752925188124319
-0.0002522368957576771
-0.00020807259657153673
-8.065000961351273e-05
-5.490964611708867e-06
1.3775349306339858e-06
6.106497541276882e-05
0.0002770485983875775
0.0006572191599646556
0.0010741485425019154
0.0013081988450344595
0.0012197712350479476
0.0008772206618107498
0.000499930271677634
0.00022334372309074088
6.67528547597923e-05
7.552417668793857e-06
-3.774959575418207e-09
-1.1165193490319515e-05
-7.496387143191925e-05
-0.00022085871050207508
-0.0004513227602860353
-0.0007420638974326434
-0.0010492946473111685
-0.0013215646243514916
-0.0015126248238857103
-0.0015919103545169275
-0.0015503066375497066
-0.0014003868314442463
-0.0011718294894882718
-0.0009037203492496913
-0.0006358750006111064
-0.0004011335139448021
-0.00022015950300840497
-9.950569141674216e-05
-3.301869308000312e-05
-5.897903975636278e-06
-1.0615235972856242e-07
4.253391684972933e-07
5.527879337808926e-06
1.046739763413111e-05
4.708565670324899e-06
3.3333681676477596e-08
-4.150092481581805e-06
-5.463546681031638e-05
-0.00021692232074720262
-0.0005341410968709469
-0.0009914910970350976
-0.0014645412848074979
-0.001710475544027398
-0.0016179698339809166
-0.0008865221841243276
-0.0008647405428828149
-0.000590511446258383
-0.0002562645671608258
-5.925297915576007e-05
-2.3689784600047996e-06
1.6302674660927692e-06
4.202561600305658e-05
0.00015181636611953433
0.0002733772212382902
0.0003126660211167867
0.0002453511178802459
0.00014405890227660396
6.585739221242427e-05
2.0314344362375633e-05
2.4605181228204546e-06
-1.9044498386549317e-10
-3.0711032698517005e-06
-2.1917051488959472e-05
-6.67103450700204e-05
-0.000140017453357369
-0.00023636171731592458
-0.0003439086159561034
-0.0004476233967430371
-0.0005328886717429806
-0.000588585006056908
-0.0006089565019770542
-0.0005940217124176865
-0.0005487456559716692
-0.0004814211398892731
-0.0004017750725475389
-0.00031922275135429316
-0.00024154705328519705
-0.0001741231589674453
-0.00011970051046544599
-7.867698579157232e-05
-4.9714106129576006e-05
-3.050038406269792e-05
-1.956361777960575e-05
-1.9348505343794945e-05
-3.816909711654738e-05
-0.0001016273141229839
-0.00025617129276720455
-0.0005420605560042599
-0.0009650927055966283
-0.001491781285554106
-0.002039920179923919
-0.0024623807405273024
-0.0025778118868410526
-0.002358355588575799
-0.001907716738718089
-0.002009588069619129
-0.0017126681903948228
-0.0011617936804624847
-0.0006370259741874305
-0.0002699988141723404
-7.513206022512327e-05
-8.054606722545613e-06
-2.7785050958902524e-11
3.008004683587283e-06
1.1131302666739503e-05
1.2587346909676226e-05
8.198748894529354e-06
3.9726891076741015e-06
1.286075697479458e-06
1.5996220119414009e-07
-3.523344998535123e-11
-2.395428753147695e-07
-1.7444884020714301e-06
-5.491036389328564e-06
-1.197487933795242e-05
-2.1103480985930593e-05
-3.2269997376916366e-05
-4.456343239779941e-05
-5.70284616840571e-05
-6.888874411235559e-05
-7.967725141181812e-05
-8.926298661964827e-05
-9.779809274134908e-05
-0.00010562977830919203
-0.00011320957476980798
-0.00012102898010792826
-0.00012958191471027303
-0.00013935052672097703
-0.00015079674951068013
-0.00016434785309957768
-0.00018035449904127654
-0.00019901678435213467
-0.00022365722083772066
-0.00027806971268861053
-0.0004047670147658447
-0.0006426322945759266
-0.0010155686170893769
-0.001508043734962704
-0.0020655845920853353
-0.0026119925945926625
-0.0030535756235442494
-0.003284106579054383
-0.0032201047929590796
-0.0028931511459400526
-0.0031069078715263575
-0.003421073641769372
-0.0032849655840551397
-0.002742919755376479
-0.0020372555070888605
-0.0013482379561545646
-0.0007780991623950859
-0.0003773423224989392
-0.00014926907364387496
-4.894314606646394e-05
-1.49851648729889e-05
-5.538921627266178e-06
-2.431530219167809e-06
-9.095821397620148e-07
-2.2593493968710472e-07
-1.9977802953995376e-08
6.143111468412646e-11
3.2622065335252084e-08
1.8087452301343138e-07
4.638528988013378e-07
8.33816093406009e-07
1.197583839774619e-06
1.443393169982929e-06
1.475639158444779e-06
1.255755820550782e-06
8.381697757215345e-07
3.7707404243669596e-07
6.94260784148983e-08
6.478492929848765e-14
-1.2503613087050638e-07
-1.3283472364096348e-06
-5.716286153903915e-06
-1.6717648870547963e-05
-3.907446311036161e-05
-7.848197277322398e-05
-0.00014083741513804882
-0.00023113720595904826
-0.000352152938348473
-0.0005052196030188319
-0.0007077405404205394
-0.0010000669212779432
-0.001406537771112812
-0.0019154190432010517
-0.0024734123910368985
-0.003003001102340238
-0.0034239659810367386
-0.0036657216375164973
-0.003681716466968289
-0.0034723428495443995
-0.0030941811321393772
-0.004178930615001738
-0.004733631118074639
-0.004890769079190254
-0.004600058310479937
-0.003992691091094957
-0.003209955955499528
-0.0023750539879350187
-0.0016015622818502844
-0.000983835401717425
-0.0005612524753879705
-0.0003085006610216468
-0.0001687898767770386
-8.594581551681596e-05
-3.498964213834001e-05
-9.19113263577559e-06
-7.543721888347816e-07
1.7080026104651844e-08
2.6550448814234145e-06
1.4667021995365041e-05
4.01540607258446e-05
7.909176185372748e-05
0.00012738124897036126
0.00017768524724541784
0.00022096293791505032
0.0002484807116010385
0.0002539377454318687
0.00023524747551101436
0.00019547222875212299
0.00014251674472810877
8.74100995750295e-05
4.136542511823478e-05
1.2196070932629673e-05
9.734731426436435e-07
-8.850490182282064e-08
-7.710861850115875e-06
-4.520942234307072e-05
-0.00013794705941316292
-0.0003073809415066617
-0.000564164657363439
-0.0009069736445348727
-0.0013363922228540968
-0.001842581556981651
-0.002388808261406212
-0.002914371820743115
-0.003348116635573799
-0.003624646393363096
-0.0037023264974369737
-0.0035805963451313893
-0.0033089315374639256
-0.0029453563561887097
-0.0048484953775911575
-0.005596790298004172
-0.0060632562810083845
-0.006141414847468476
-0.00584208610209896
-0.005223601674847614
-0.004373054844937497
-0.0034082923358578323
-0.0024666205465023907
-0.0016624934360306063
-0.0010482309388778113
-0.0006147153928252496
-0.0003163996828975517
-0.00012692391928629474
-3.147826380194975e-05
-1.9550852297002394e-06
2.805180420464079e-07
1.5943194075531677e-05
7.92983774329989e-05
0.00021105988144138634
0.0004139564401257007
0.0006718005276731988
0.000952325734443266
0.0012134171541753455
0.0014116524908526125
0.001511526499899297
0.0014934388014360078
0.001358615581785909
0.0011296520965008196
0.0008462210172991837
0.000556571325272363
0.0003064778840475671
0.00012813666739370564
3.166562407770463e-05
1.5388849096666342e-06
-8.20140810086634e-07
-2.851385022079707e-05
-0.00013645419966329582
-0.0003654496182930255
-0.0007208219080544482
-0.001175076076771944
-0.0016870934906075634
-0.002204508434902264
-0.002670058552648414
-0.0030252963738473474
-0.0032196237916198986
-0.003229865740218576
-0.0030769137745118628
-0.0028260873115354447
-0.002527058440536505
-0.004968316828906996
-0.005807426970135047
-0.006486072557805018
-0.006882535146255067
-0.006922085547958386
-0.006585234074218807
-0.005904445926724319
-0.004964387585465461
-0.0038918921528973338
-0.002826457382695449
-0.0018824986094792338
-0.0011262417167830856
-0.0005733380623519532
-0.00022216377660550768
-5.028550150385155e-05
-2.0061939406694394e-06
1.648365394296501e-06
4.605213857227838e-05
0.00020501147453421643
0.0005249922118307774
0.0010144777127439792
0.001640629168669681
0.0023341542836766037
0.0030017774701643313
0.00354408636979283
0.003875245628832603
0.003940547026026762
0.0037279670581611608
0.0032711566969985144
0.002642997956295034
0.0019408874962424738
0.001266781717212822
0.0007062709576723477
0.00031130155198867096
9.047899772725433e-05
9.253917480943921e-06
-3.640349051017329e-08
-2.060392788779412e-05
-0.00012919880183925544
-0.00036614732884511617
-0.0007181552157961975
-0.0011403547754256927
-0.001576697587631643
-0.0019729888528806218
-0.0022783565481536753
-0.0024501233041648563
-0.002470699963076428
-0.002361687736514626
-0.002181416218513927
-0.001968806700735946
-0.004557485926181852
-0.005368262296479089
-0.006103526156856347
-0.00665337257049335
-0.006907164728580819
-0.006801421824898092
-0.006328034732432415
-0.005534227561853617
-0.004513622270446049
-0.003392391149411452
-0.002308209665614554
-0.0013814018646365173
-0.0006886144025194112
-0.000254790901886937
-5.12433714221092e-05
-1.0273887646063678e-06
5.088901502539971e-06
8.610898595028605e-05
0.00034614019881902276
0.0008520285339710765
0.0016175392792494294
0.0025973997704722817
0.00369287908264621
0.004768388723434284
0.005676170657371202
0.006284252852536581
0.006501906992042921
0.006297215676139045
0.005703073911099983
0.004810334649447429
0.003749726346520191
0.0026663460347893814
0.0016922679309343098
0.0009229262391664035
0.00040211459041388447
0.00011846143093669234
1.3640433615260887e-05
-1.8002973762929169e-09
-1.654301426748254e-05
-0.00010882870482161818
-0.0003016238498415374
-0.0005757235141197152
-0.0008893314746860073
-0.0011960231393093933
-0.0014509080423428095
-0.00161562848436649
-0.0016711540634960997
-0.0016288024317338422
-0.0015285819239580602
-0.0013982241434338863
-0.0037742220566429896
-0.00446107041528747
-0.005109044979922156
-0.005631352817906367
-0.005923519337734344
-0.0059161593188595644
-0.0055871289825404616
-0.004961714552194581
-0.004105238427948251
-0.0031181258260527776
-0.0021270310740557664
-0.0012597804237250401
-0.000611498613919103
-0.00021446324358503007
-3.7469074032129e-05
-2.40892402045045e-07
9.68337068496438e-06
0.00011469445731344748
0.0004223599101323554
0.0010024888120164605
0.0018703258230617567
0.0029794420289941024
0.004226397647476283
0.005466989894087725
0.006541391745780862
0.00730329217163171
0.007647024986979348
0.0075269707108295975
0.006965238437530253
0.006046221609561924
0.0048996006091125
0.0036756057071076777
0.0025180233452019663
0.001540255820416483
0.0008090556416031153
0.00033855120427789834
9.493276304240971e-05
9.989281063644705e-06
-6.868799795879313e-09
-1.3410987896004005e-05
-8.045827933368655e-05
-0.0002134242060842751
-0.0003961297107184342
-0.0005986373142770816
-0.0007867064659117524
-0.000928413191635404
-0.0010035957571146367
-0.001012093340264409
-0.00097406858662556
-0.0009063290320880031
-0.0028405754371318153
-0.0033554149310670053
-0.003833459451797275
-0.004212390454799197
-0.004417659975143385
-0.004399238767216192
-0.004141762602975711
-0.003664943891810583
-0.0030182497713380635
-0.0022773065944543995
-0.0015374454636369736
-0.0008950900028331049
-0.00042191140031661793
-0.00013975481348241792
-2.0852635457126172e-05
-1.3183734151415089e-08
1.2330663508632325e-05
0.00011316147284952193
0.0003878745267367959
0.0008923642027631143
0.001639462524642675
0.0025926397166887456
0.003668842473752364
0.00475068023906998
0.005706074729603187
0.00641161101643454
0.006774792354453074
0.00675044109313854
0.006347872431958146
0.005627641756226239
0.004689014420278657
0.003651200109237892
0.0026325351632875845
0.0017317073708232105
0.0010143809874873571
0.0005071691883289256
0.00019924812483172578
5.051662998418387e-05
4.06255427182075e-06
-6.211897387557826e-08
-1.0813561286189168e-05
-5.5230024256616347e-05
-0.0001378628418834501
-0.00024739401822264893
-0.0003640433000936824
-0.000465924993979368
-0.0005357947186159791
-0.0005668231471529804
-0.0005643191059326696
-0.000535823515773413
-0.001956445617231225
-0.002299850379474711
-0.002596954930430975
-0.0028074132792518924
-0.0028917623261255844
-0.0028265529267583354
-0.002610077392858011
-0.0022629830470034125
-0.0018246777437542657
-0.0013479919631311419
-0.0008914447021685354
-0.0005078911747451366
-0.00023245021279079796
-7.281673005711565e-05
-9.234365964391437e-06
1.0095174193525569e-10
1.0911253955890589e-05
8.375981420525273e-05
0.0002717117656754035
0.0006099735026121136
0.0011072784089161424
0.0017415436073146815
0.002461027889795276
0.003191360652984485
0.0038474867438049107
0.004348313096935827
0.004631007767922087
0.00466189656587098
0.004441669563336829
0.004004035975156403
0.00340849610006407
0.002729094758659854
0.002041697802857952
0.001412308297005914
0.000888405064825621
0.000494472642709483
0.00023196582926899223
8.317062818822995e-05
1.7805533174527518e-05
7.949972193542499e-07
-2.695707966149843e-07
-8.871925168187718e-06
-3.6608461417835695e-05
-8.401942318706838e-05
-0.0001436878460471252
-0.00020417343192757662
-0.00025412148974946397
-0.00028574733695791235
-0.00029667388765269317
-0.0002882220519507685
)
;

boundaryField
{
    "(inlet|outlet)"
    {
        type            zeroGradient;
    }
        "(front|back)"
        {
            type            empty;
        }
    "(top|hills)"
    {
     	type            zeroGradient;
    }
}

