/*--------------------------------*- C++ -*----------------------------------*\
| =========                 |                                                 |
| \\      /  F ield         | OpenFOAM: The Open Source CFD Toolbox           |
|  \\    /   O peration     | Version:  v1806                                 |
|   \\  /    A nd           | Web:      www.OpenFOAM.com                      |
|    \\/     M anipulation  |                                                 |
\*---------------------------------------------------------------------------*/
FoamFile
{
version     2.0;
format      ascii;
class       volScalarField;
location    "0";
object      nutCoeffs40;
}
// * * * * * * * * * * * * * * * * * * * * * * * * * * * * * * * * * * * * * //
dimensions      [0 0 0 0 0 0 0];

internalField   nonuniform List<scalar> 
1000
(
0.0032357567898014007
0.004377082887468916
0.00525958561601666
0.005513101932035922
0.005209019146554051
0.004562777705529097
0.003736684051843947
0.0028753400527804836
0.0021434733497574213
0.0016537559980399508
0.001429177553206325
0.0014636991341646977
0.001665108200572966
0.0018922078387135718
0.0020995071949318034
0.0022752772906864966
0.0024097471907221376
0.00249629217442081
0.0025320768573091055
0.0025180453624245322
0.002458340909458895
0.0023593519615534215
0.0022286571651194626
0.0020740773133076894
0.001902973848616904
0.00172186149974053
0.0015362574311421336
0.0013507663152720914
0.0011692441535991224
0.0009950038199223214
0.0008309741776492618
0.0006797497903451843
0.0005435538928102988
0.00042408530128890603
0.00032233553151060683
0.0002384456858577834
0.00017165487793746853
0.00012039068492449209
8.343131096759057e-05
6.031373522914581e-05
4.563959897432034e-05
3.1908320806749546e-05
1.6207948894954794e-05
3.5866597157376276e-06
4.591497408677237e-09
-3.3879181469810896e-06
-3.746984197203562e-05
-0.00012933851595103065
-0.0002202240205933771
-0.00021624314017293635
0.0034158632453278747
0.004678772838790866
0.0058680156149964946
0.0065917456595833085
0.006758915594037122
0.006460439690494212
0.005800575920711981
0.004918183561046148
0.00403992942206858
0.003393094843482043
0.003106328582158353
0.003240157896355949
0.003654381535211991
0.004098587182493428
0.004489905195774701
0.0048045477696404045
0.005023349124546368
0.005134257038428967
0.005133714955616845
0.005026646095840717
0.00482513882483962
0.0045462243353360555
0.0042093637803099215
0.0038341057919944964
0.003438354507228903
0.0030373483225133676
0.002643284401232052
0.002265498761670095
0.001910874105242241
0.0015843575590036762
0.001289418965352049
0.0010283080646340266
0.0008022028116505406
0.0006111760730072467
0.00045414474220094813
0.0003288784038437436
0.0002321213658651993
0.0001598651446485365
0.00010792598597330704
7.160224235372525e-05
4.3894808101081504e-05
2.0479766092630416e-05
4.409717469335321e-06
9.061535697015037e-09
-3.2814316661523917e-06
-3.7478484180462985e-05
-0.00014382848100076388
-0.0003246355525322823
-0.0004569982093534884
-0.00042307144758746233
0.003431463466164791
0.004748776981878882
0.006176803427742557
0.007368325348089093
0.008117982192107543
0.008380716007739583
0.00815956328799671
0.007531680755059218
0.0067308273032409055
0.00607926803618321
0.0058361793767109675
0.006160774572848479
0.006865576144331493
0.007578545942025067
0.0081751742340209
0.008617821391228311
0.008878113691290247
0.00894072927745063
0.008805331008810539
0.008486249569717276
0.008009972905466558
0.007411121832453969
0.0067278988445409575
0.005997811310211079
0.0052544561647135295
0.004525634939847622
0.0038326094645951634
0.0031904550640424337
0.002608858221936477
0.0020931676894267053
0.0016454008261573311
0.001264974629993709
0.0009492746836633754
0.0006939890800311302
0.0004933840434720777
0.00034063287764069184
0.00022821707645403745
0.00014842254661533177
9.299589918446866e-05
5.2586224444702245e-05
2.233783368720489e-05
4.3211143733039946e-06
2.0684678194189757e-09
-4.324015721498528e-06
-4.3594555733093695e-05
-0.0001610317663517301
-0.0003846388889050048
-0.0006702120655226832
-0.0008269852283401306
-0.0007327232920122389
0.003295298566006377
0.004595453656974536
0.006157685751060856
0.007727486261453292
0.00905690479378298
0.009997785309821306
0.01044554679652939
0.010378568671777156
0.009971437547527506
0.00957654888536192
0.009554754593484318
0.01015577370906729
0.011158007195734804
0.012100737258159671
0.012830331754633021
0.013300288012329848
0.013479635595635626
0.01335708343443902
0.01294276204155094
0.012267057890486032
0.011376700828707804
0.010328875392601503
0.00918464243223464
0.008002696740042465
0.006834620709128224
0.005721964639969805
0.004695082304364599
0.0037736596132248424
0.0029679708741998387
0.002280725536478345
0.0017088897712895488
0.0012452420895872414
0.0008797021350589612
0.0006003145424242669
0.0003940794265112604
0.00024771161704034006
0.00014834080898124596
8.416395236491722e-05
4.37940317010655e-05
1.7018828907400532e-05
2.523612028596003e-06
-3.812715286253702e-09
-7.415154320394038e-06
-5.9012343898505095e-05
-0.00019952461457009522
-0.0004580445556986353
-0.0008278342886254677
-0.0012084412932355918
-0.0013519352462488556
-0.0011570234934149722
0.003039926345016186
0.004259212727065065
0.005838673823890068
0.00763423323535207
0.009422054601959847
0.01101111320667487
0.012222526846711166
0.012935794517479327
0.013217270171168307
0.01336138755456281
0.01374666738287183
0.014653816900702187
0.015852928834495163
0.016874840126835582
0.01756617579170334
0.017883403017313212
0.017804832960248453
0.01733362522602462
0.01649834363218465
0.015350584046261244
0.013959894899416583
0.012406598188649483
0.010773817456017536
0.009139763482623301
0.007571664709376347
0.006121886380924305
0.004826292732147541
0.0037048790561171425
0.0027637094760188993
0.0019977580221656947
0.0013939594045859732
0.0009339882755850488
0.000596704427300394
0.0003600326388812828
0.00020242925451230528
0.00010401495308877114
4.7389241212032346e-05
1.8181930848947663e-05
4.895189843560261e-06
2.2994932755451053e-07
-5.265300111399117e-07
-1.6457024489382858e-05
-9.062915828769109e-05
-0.000272506144825687
-0.0005869021655572235
-0.0010255833284496508
-0.001537132609236968
-0.001969091072977872
-0.0020399143106382216
-0.001696624760846509
0.0027066907165434516
0.0037979142058614684
0.005289772776330497
0.007136960993958848
0.00917939373944463
0.01124264997251115
0.013129357406320102
0.01465663649706632
0.01577113961269338
0.01663311967804552
0.017530776643647435
0.01868702634038067
0.019896776696339054
0.020781718301165104
0.021223703662419838
0.021196103049718796
0.0206986296349202
0.019757957766041546
0.018426441693226894
0.016778580146841967
0.014905258292878082
0.012906070864804747
0.010880709731976574
0.008920430267086079
0.007101005226987957
0.005478100182510122
0.004085305584532648
0.0029352053644863237
0.002022274131832085
0.0013272608429646122
0.0008219265490512074
0.00047343186851115515
0.0002480490589842383
0.00011389313203467223
4.2773174943322644e-05
1.1289206154452196e-05
1.3138505940736385e-06
2.409732806897194e-10
-7.421573806926806e-07
-8.780345692352132e-06
-4.6438125669499246e-05
-0.00015935886393667544
-0.00040335731104134705
-0.0008055824085176954
-0.0013421986402165358
-0.0019570562500588894
-0.002558298140875097
-0.0029589777921191075
-0.0028783459022515994
-0.002336669727174461
0.0023349609651813685
0.0032707606172975036
0.004599036213396932
0.006343490097957636
0.008414391737256433
0.01068927984643903
0.013003314372297455
0.01516543227116353
0.017031640535042563
0.018595472608485732
0.01996977812366438
0.021241842144222547
0.022259520003173876
0.022811637598432064
0.022840805392385657
0.022347374108726063
0.021359925929323943
0.019933059317733412
0.018144104050036428
0.01608853555235906
0.013873850701451647
0.011611742972535097
0.009409389473200146
0.007360493272999724
0.005537892625831944
0.003988761620417338
0.002733120231668194
0.0017660192949567185
0.001062291999276061
0.0005830294459945916
0.0002823561172339961
0.00011343066100725715
3.307722276340527e-05
4.748788960751303e-06
1.8308310020923547e-08
-1.1017595629222734e-06
-1.0652211366535996e-05
-3.3743084246110256e-05
-7.327389905653411e-05
-0.00015237658845047066
-0.000325389312766826
-0.0006523661624972779
-0.0011698395787848785
-0.0018475672900261685
-0.0025969391328453813
-0.0033193944169467955
-0.0039006066262441672
-0.004148927160702834
-0.003826289337811435
-0.003042358791911886
0.0019553521553968803
0.002726698189877725
0.003849689657083297
0.00538344113591902
0.007291532815308434
0.009507900100755758
0.011925216366020609
0.014389246733527993
0.016717901389159167
0.018761078924028517
0.020431810294634093
0.02164862330496378
0.022323514168607464
0.0224364323400861
0.021998262619942043
0.021039618289675602
0.01961893778420074
0.0178175952383068
0.01573460944823803
0.01348096421075249
0.011172882557066685
0.008923889337455018
0.006836082149771889
0.004991508072931847
0.003445333603382986
0.0022222069614670527
0.001316589752665167
0.0006972700030547142
0.0003147382160218779
0.00011006819268726284
2.3458723946696486e-05
1.103625876243412e-06
-3.1277359854217657e-07
-1.1560676022699396e-05
-5.0807208907007466e-05
-0.00012491746093520976
-0.00023150537902233607
-0.00036130108159500784
-0.0005136260825198757
-0.0007510929562119199
-0.0011680828232420858
-0.0018076764468919644
-0.002647645697995411
-0.003575007110015693
-0.004438734462077773
-0.005120072014708146
-0.005513023049829155
-0.005460600408089813
-0.004808741636458037
-0.003756173528425923
0.001588174755290306
0.002200065873778148
0.0031063138905081853
0.004374542212589746
0.005996734806304483
0.007946396126167128
0.01016931256662595
0.012565279555113733
0.014962396081685033
0.017129159566789405
0.018822668525802312
0.019817916782467422
0.020084605465441618
0.019763391936265168
0.01892367673043277
0.017623338355187024
0.015945548462209188
0.013991597851833102
0.011873826213801088
0.009708565884382604
0.007608698518681888
0.005675560513747949
0.003990825897804318
0.002609188604111471
0.0015537004813314641
0.0008148793287893066
0.00035429752239607117
0.00011225453403696073
1.793635350029762e-05
1.162104520074684e-07
-3.638257630238523e-06
-4.063465789492886e-05
-0.00014011171902423523
-0.00031335833803359755
-0.0005560553438720885
-0.0008518339557436282
-0.001176242757914236
-0.0015006100802711887
-0.0018256557142171228
-0.0022800740239126804
-0.0029965263153439808
-0.003960060579378723
-0.005055865757590522
-0.006082871271358795
-0.006852887510860348
-0.007265300322027656
-0.00726204656462904
-0.006760630670815932
-0.0057181631013663485
-0.0043999391935892205
0.0012458942773884382
0.0017124682987135346
0.002412002859344181
0.003404487756302777
0.004690061316496133
0.006259790391095861
0.008091587899638219
0.010129686116400262
0.012236478014260555
0.014166247966902952
0.015605976843692632
0.016259486300012064
0.016140858545676515
0.015486738726556194
0.014404300595230764
0.012970868603772053
0.011283914836936847
0.009452292543148173
0.007587756937478663
0.005796930348959848
0.004173490765032153
0.002790721046734292
0.0016950043348728776
0.0009013215341007378
0.0003920938069892756
0.00012023338134920148
1.6473288272339105e-05
5.9995261894142135e-09
-9.497738350011914e-06
-8.071237480041798e-05
-0.00026230858118782285
-0.0005785992107801206
-0.0010293015054530501
-0.0015926841399806673
-0.0022308895655231697
-0.0028961077514742715
-0.003536694693345883
-0.004102643423343263
-0.00460214994049528
-0.005246377600223109
-0.0061930466794996395
-0.007334652126774276
-0.008452621356283838
-0.009284318267876384
-0.009654315412829205
-0.009527099776782537
-0.008927851041564046
-0.00787234945310735
-0.006428268363875921
-0.0048848963455878774
0.000937035117525574
0.0012775512788524835
0.0017930267283365658
0.0025292759261246844
0.0034839764989496574
0.004650218286198348
0.0060170963827178535
0.007552797271979178
0.009154687948901367
0.010608234143335876
0.011614964745443102
0.011893128495101681
0.011490154694478517
0.010667868491461174
0.009546726927280823
0.008212012483988066
0.006761273182266132
0.005294892616916899
0.003907234280221505
0.00267865077917422
0.0016685569188602996
0.0009098078330291059
0.0004051182349528337
0.00012627662493584803
1.7044425232928254e-05
1.078879770452519e-09
-1.3155874518521601e-05
-0.0001092502227942371
-0.0003612505452266156
-0.0008180514816932787
-0.0014981481180179092
-0.002388073735020516
-0.0034453713001438464
-0.004605085454248558
-0.005788343389083082
-0.006911442845974191
-0.007894379204897165
-0.008668137261814753
-0.00925191690842858
-0.009929506998693657
-0.010859968083671085
-0.011839250126820614
-0.01257752033820483
-0.012815105186185536
-0.012451984464915107
-0.01155268228642032
-0.010236451953323934
-0.008610247530722483
-0.006820659936356978
-0.005130077958966536
0.0006689954884018334
0.0009050921996004686
0.0012652965769048509
0.001780902177280753
0.002444832738310663
0.003246280325352654
0.004173937304120558
0.005204119867121664
0.006260739660142374
0.007179313652073114
0.0077284238752731455
0.007700602265999136
0.007166373170228002
0.006358611836075169
0.005389023578402734
0.00433740763167195
0.003286533875880807
0.002313249250703692
0.0014805622842878803
0.0008311321700551746
0.0003824757430454697
0.00012423402931768668
1.797009501759997e-05
5.3254776130737754e-09
-1.2396104027449338e-05
-0.00011166330406921045
-0.00038820666201530254
-0.0009178405445307506
-0.0017502938498292397
-0.0029007688852377444
-0.004345990111772078
-0.0060255616361899
-0.007848096458089183
-0.009701134527558483
-0.011463189061723018
-0.013016010696691125
-0.014255837344363965
-0.015102484106075153
-0.015584512414433482
-0.016013219994696907
-0.016523375191762574
-0.01686381348346864
-0.016756722454116055
-0.01603000703108708
-0.014703664263624995
-0.012940872126983007
-0.010929603847058485
-0.008830096948018173
-0.0068171965308748295
-0.005084539848753825
0.0004483569457053211
0.0006022660614373034
0.0008382653555987167
0.0011756545796305234
0.0016047047327457237
0.0021116371927867995
0.002682540789621387
0.0032959646216248113
0.0038959945557707873
0.0043697985072096955
0.004567581268670622
0.00437189266501493
0.003861864160721447
0.003213299860886052
0.0025140350108220767
0.0018265125389174495
0.0012079319049032435
0.0007030158466375566
0.00033813041625630966
0.00011718045671543191
1.9513067396444082e-05
5.690169699403039e-08
-8.066671279069083e-06
-8.826879282612656e-05
-0.0003325515233778888
-0.0008312600975287234
-0.0016614184049815496
-0.0028749773071523833
-0.004488772372755608
-0.0064779281236813395
-0.008774111216370367
-0.011269421139679355
-0.013825463388754919
-0.016286576877830305
-0.018495306767769712
-0.020307952365902732
-0.021608252080805333
-0.02231782036609606
-0.02246847660380858
-0.02233071323856937
-0.022003255752467303
-0.021284824053798567
-0.02001305626759197
-0.018164563071557473
-0.015876978244414783
-0.01336965305504932
-0.01084808287169582
-0.008475195360186316
-0.006405634135285162
-0.004744862319843215
0.00027898227416345593
0.0003721251715253914
0.0005149006573751952
0.000717874205338829
0.0009715869838345598
0.0012626664418281832
0.001577188675943391
0.0018966660825913966
0.002182698225423963
0.0023670703126359134
0.0023697940122416983
0.0021443222091116015
0.0017615955463000114
0.0013355511023185505
0.0009241692366121328
0.0005664189825207362
0.00029108875308167027
0.00011178015412036396
2.3409733366877997e-05
4.6805081015661696e-07
-2.83960824823652e-06
-5.049513597187232e-05
-0.00022052981997238737
-0.0005988020849543588
-0.0012707894461554466
-0.0023117340330768717
-0.00377596657998617
-0.005686487341881517
-0.008026537632454337
-0.010734633181201722
-0.013704639764277693
-0.016791651654311738
-0.01982334380780024
-0.022615812423703658
-0.024991711080160958
-0.026798102578328938
-0.02792172936081972
-0.02829954147101686
-0.027959337418552103
-0.027072808630478867
-0.025712022328635068
-0.02382014701166757
-0.021414718169381588
-0.018622785900460712
-0.015651340813811913
-0.01271590519682052
-0.009989419942070461
-0.007597819214251273
-0.005646561603963505
-0.004159539358211025
0.00015970834319391683
0.00021130657321463052
0.0002896370805556699
0.00039955589187538865
0.0005337218101873175
0.0006818046510153277
0.0008328261899276212
0.0009734032590141624
0.0010805553146274421
0.0011194351469556681
0.0010568454373847064
0.0008856375035052206
0.0006568007114497685
0.00043275257292709135
0.00024422254385847317
0.00010820569222645588
3.0421338143812842e-05
2.382993685614347e-06
-1.914247593861342e-07
-1.7516475952811312e-05
-0.00010438238758306328
-0.0003272788434783335
-0.0007599558791928732
-0.0014774154843688637
-0.002548422721573608
-0.004026838706817199
-0.005942498260135188
-0.008292516138824297
-0.011034608145013777
-0.014083762666355243
-0.01731364221431473
-0.02056368283532466
-0.02365128937961133
-0.02638856905018935
-0.0286010346254408
-0.030145809079710394
-0.030926592099723704
-0.030903207599747167
-0.03009467250832487
-0.028557544246757764
-0.02635589311793492
-0.02360619307814098
-0.020491850035004144
-0.017235689767005954
-0.014051216780056316
-0.011105301568736535
-0.00851219346720494
-0.00634580520386017
-0.0046582012567463645
-0.00341721899909737
8.369071680194745e-05
0.00010948667539065494
0.00014769822092706024
0.00019995124575094514
0.0002614846235464821
0.0003257972364189074
0.000386029827151751
0.00043443856516903407
0.000459848805654329
0.0004483506492178425
0.00039112907447809105
0.00029461644438352665
0.00018773361772004055
9.809319799252392e-05
3.717839921058098e-05
7.013797025776033e-06
4.4551789420369286e-08
-2.3400347064713717e-06
-3.0298738281732183e-05
-0.0001249832650139007
-0.00033689666055149034
-0.0007231214695285308
-0.001343365022134803
-0.002254815395007693
-0.0035059137137257853
-0.00512933251601923
-0.007134801434612924
-0.00950250978127837
-0.01217842675313224
-0.015072500066280364
-0.01806104790516891
-0.02099373056661255
-0.023705024654668786
-0.026029260718979697
-0.027817309304509163
-0.028952491506128487
-0.029363385686036195
-0.029031428595261456
-0.027967028807173912
-0.026142397788664867
-0.023622816546115675
-0.020641421728492176
-0.017466953682597885
-0.014341970551119663
-0.011441410570910032
-0.008870364168566514
-0.006686990405565392
-0.004921071784990717
-0.003585310533358646
-0.0026234941668474387
4.021856354702976e-05
5.170131345832723e-05
6.793283829370218e-05
8.91006651847599e-05
0.00011260012031896634
0.0001351051826513102
0.0001532604566482424
0.00016366566729792334
0.00016232650879575514
0.00014564778040900852
0.00011373016950975241
7.312478351495914e-05
3.62491301294515e-05
1.1917537775760792e-05
1.418436770876258e-06
-4.332701395163268e-09
-3.834052599410627e-06
-2.897188102075467e-05
-0.00010180583862383556
-0.0002555940316760453
-0.0005290960040815249
-0.0009643731444031703
-0.0016037014064553285
-0.002485595435665044
-0.0036400807412970758
-0.00508349932685168
-0.006813391498718638
-0.008804073417553139
-0.011003805144071205
-0.013334396920795435
-0.01569377331833045
-0.01796208058172407
-0.0200108471715517
-0.021714619318383824
-0.022963564150560802
-0.023675347974762645
-0.023804456741031873
-0.02334737213434789
-0.022310673523330105
-0.020637255217812456
-0.018388962182323405
-0.01581447725058513
-0.013170189958344913
-0.010657259559002005
-0.008395959578613622
-0.006442156080154267
-0.0048176765095377504
-0.003527241214799919
-0.0025644573644524084
-0.0018756026433845224
1.794447352977968e-05
2.2434136064318838e-05
2.8288635393897362e-05
3.530347765606584e-05
4.2305203300886016e-05
4.795016901406759e-05
5.1019427501668106e-05
5.0504656701620976e-05
4.561265873288166e-05
3.6249832662025346e-05
2.3895166352500562e-05
1.1759885978820084e-05
3.477557052951155e-06
2.560721032187604e-07
-4.479734880313579e-08
-3.0405646225792625e-06
-1.835601912087889e-05
-5.996551314744598e-05
-0.00014619581490825845
-0.00029932307669601146
-0.0005446855173658038
-0.0009092173103738176
-0.0014193427058828184
-0.002098240692834304
-0.0029625865292142455
-0.004019063836798368
-0.005261013602796485
-0.006665776858180891
-0.0081932742167713
-0.009786340056769316
-0.011373103450091057
-0.012871630313238418
-0.014196332880791586
-0.015265801993999673
-0.016010982969654433
-0.016382628687612488
-0.016356937970292664
-0.01593839911209874
-0.015135226610484546
-0.013906439001379443
-0.012302062242267011
-0.010505512790872511
-0.008696192932373762
-0.007005670002258054
-0.00550515636125426
-0.004221963548776999
-0.0031626071620824655
-0.0023240604949428486
-0.0016967107520841553
-0.0012435474052977956
7.627460358999637e-06
9.135964428209916e-06
1.0846859630493606e-05
1.2588603208263784e-05
1.395371925096572e-05
1.4548521999500952e-05
1.4093656684700065e-05
1.2474890215958218e-05
9.782784328227529e-06
6.417474457340456e-06
3.147907930191227e-06
8.74861236026717e-07
4.014981356071689e-08
-4.767611603216338e-08
-1.5338650333723349e-06
-8.307293789201127e-06
-2.6294465388844628e-05
-6.364743819862918e-05
-0.0001307813160570849
-0.0002402080340684104
-0.0004060948733681505
-0.0006434626597700826
-0.0009669650076814315
-0.0013892385300166815
-0.0019188944455414067
-0.0025583582878624263
-0.0033018496797415494
-0.004133876209614084
-0.005028605676850571
-0.005950421935963025
-0.006855789665201645
-0.007696373843572657
-0.008423117032754966
-0.008990869940514037
-0.009362966766973424
-0.009515161860433429
-0.009438350600423135
-0.009139648479287641
-0.00863020232149804
-0.007900052988781216
-0.006983569283704307
-0.005976533877876511
-0.004970253757936748
-0.00403112836710959
-0.0031952835374650422
-0.002476853061468449
-0.00187912161886547
-0.0014000323431777807
-0.0010337141776293787
-0.0007615599129448383
3.206986935919255e-06
3.6120927377012987e-06
3.952481604899918e-06
4.1596191178809775e-06
4.145111629273708e-06
3.849213741222461e-06
3.265038914732834e-06
2.452993831508996e-06
1.5438586485454774e-06
7.253243824124576e-07
1.8738749517614977e-07
5.4046240654872864e-09
-2.421027541311639e-08
-5.491859829158992e-07
-2.811471205525313e-06
-8.798526211490374e-06
-2.1378758087544966e-05
-4.440617636195114e-05
-8.277633258169009e-05
-0.00014239986869563694
-0.00023004548377759463
-0.0003529913099439145
-0.0005184313184398759
-0.0007326108208523356
-0.000999730786389757
-0.0013207392656917798
-0.001692193792729524
-0.002105465679807038
-0.0025464777972408173
-0.002996198289318504
-0.0034318725457228873
-0.003828917298759051
-0.004163228816381111
-0.00441360184616288
-0.004563936805269737
-0.004604925389658634
-0.004535023201532513
-0.004360551253267154
-0.004092587322426972
-0.0037408806143155774
-0.0033257689357586136
-0.002880024784864481
-0.00243435349692212
-0.0020124584443943737
-0.0016293255311996425
-0.0012927167623138797
-0.0010057104570433822
-0.0007683194760441828
-0.0005783407760992273
-0.00042982925257037017
)
;

boundaryField
{
    "(inlet|outlet)"
    {
        type            zeroGradient;
    }
        "(front|back)"
        {
            type            empty;
        }
    "(top|hills)"
    {
     	type            zeroGradient;
    }
}

