/*--------------------------------*- C++ -*----------------------------------*\
| =========                 |                                                 |
| \\      /  F ield         | OpenFOAM: The Open Source CFD Toolbox           |
|  \\    /   O peration     | Version:  v1806                                 |
|   \\  /    A nd           | Web:      www.OpenFOAM.com                      |
|    \\/     M anipulation  |                                                 |
\*---------------------------------------------------------------------------*/
FoamFile
{
version     2.0;
format      ascii;
class       volScalarField;
location    "0";
object      nutCoeffs21;
}
// * * * * * * * * * * * * * * * * * * * * * * * * * * * * * * * * * * * * * //
dimensions      [0 0 0 0 0 0 0];

internalField   nonuniform List<scalar> 
1000
(
0.00010187096159866879
0.000601742862485696
0.0033189153013670337
0.010330957902123739
0.02048043996192718
0.03079195870012189
0.038627908187728495
0.04236804696576486
0.04203291989629056
0.03943253551865107
0.036886138898743794
0.035908980308029706
0.035736211555403644
0.03473568679274001
0.03256512365370318
0.02933703410461346
0.025257311552980995
0.020611145671463403
0.01574052010379291
0.011014962896598703
0.006798336468533401
0.0034146760930945735
0.0011171776156611657
6.353451098265542e-05
0.00030142783819312927
0.0017655139476360911
0.004286503593966635
0.007610407571807788
0.011425573394129711
0.01539370599091269
0.01918120241904926
0.02248831607311728
0.025072717245385217
0.026766914263400114
0.027487685347127446
0.027237044031067886
0.02609513777781728
0.024205743262129483
0.021967835089071644
0.020356944525194917
0.019460309844800707
0.018057691936074417
0.014947759697512285
0.010015585528071034
0.004621250531400189
0.0007916648880601448
0.00024121514632072818
0.0030624512015550013
0.006346311739615884
0.007259838446360208
0.00044307099179448405
0.00010481295211915938
0.00039655584213850844
0.0041498739935673596
0.012303052330020815
0.023147778197650064
0.03411403341464087
0.04272804711540249
0.04748291494602193
0.048807612211787525
0.048566072097849626
0.0484953596879436
0.04833855008767617
0.04687132582379647
0.04385017403840406
0.039428728544982375
0.033883660406074274
0.027596883784917984
0.021026346916095257
0.014667491730474151
0.009008656977892816
0.0044847995983497094
0.0014351183216095324
6.895380066764601e-05
0.00044545989814507436
0.0024691954815565936
0.005902675267180342
0.010393464983474522
0.015512678292400522
0.02079902485590241
0.025803110021122275
0.030127932118327334
0.033460141421658665
0.035591612049205225
0.03642876441981995
0.035990307846438654
0.03439453204695636
0.0318380101852329
0.028687746943246228
0.025571159165294254
0.022294050477559064
0.01788246044043026
0.012012905689787457
0.005804033621910187
0.0012686571211819445
7.646288956406915e-05
0.002742019183598811
0.007734662168466158
0.011345054377602252
0.01163760559497159
0.0026307123786258432
0.00198743474160373
0.00037798614699242693
0.0004763961105402807
0.004767762897902471
0.01327556668238034
0.024464942807608196
0.03600191611061271
0.04539618713432356
0.05135266063109739
0.054358590721695826
0.055597808499319556
0.055422931308191425
0.053526486015578
0.04988570843237834
0.044685635757227095
0.03824702801547557
0.031007223652309464
0.02348822062873822
0.016253832079820167
0.009859017575045767
0.004796621003880698
0.0014475806709765967
4.055115219477476e-05
0.0006275983546733348
0.0030792396076254314
0.007100350821102771
0.012264355116720135
0.018061242619379164
0.023952485060921944
0.029425042214509183
0.03403904833948998
0.03746278170470535
0.039493561056756464
0.040063278343076346
0.039229688918349985
0.037156558767683714
0.03408567969185245
0.030260493389940503
0.02569423816914921
0.0200774837957527
0.01337138273488984
0.006542096531330749
0.0015342993848521743
3.3460399062584594e-05
0.002510388041118763
0.007987614560009544
0.013811842466555256
0.016600647475132124
0.01586033176213038
0.006137585497535253
0.005753956714580452
0.003274515650414531
0.0005024750608222412
0.00044748039357166635
0.004562185758039807
0.012767109104296489
0.02378222594825615
0.03520509180139844
0.044515064531119614
0.05043424732528385
0.05290398878691194
0.052705715722313695
0.05063406636700634
0.046929785558885564
0.04178490149058811
0.03551688927602103
0.028550756215315564
0.02138889132058268
0.014570140861329567
0.008620976178693836
0.004003256466213465
0.0010654085374018464
2.7991378317197846e-06
0.0008347768492103342
0.0034017442684480086
0.007384098523083638
0.012339891264240298
0.01775662449451565
0.02310861652403229
0.027912165473966223
0.03177175797206095
0.034411270525621054
0.03568904184635856
0.035596304481717675
0.03424166232428235
0.03182545727362706
0.02860835634662316
0.02468212238935447
0.01951575193934001
0.013008458866383469
0.006334030117286266
0.0014205591265315889
5.9896587679251695e-05
0.002715329830932389
0.0084047366219503
0.015068510497333263
0.01989456903048463
0.020832599275020593
0.018893292539132234
0.010042258322444932
0.010344344087810856
0.008159476251608273
0.004131259832955482
0.0007883182963303856
0.00019197319015539112
0.0034167459398095016
0.010538290184317812
0.020211430655638976
0.029827205189926147
0.03685999540869405
0.0398975511948254
0.03973379574853015
0.03791800699593312
0.03486758350215569
0.03074852524077662
0.02582294271982475
0.020434025481067743
0.014981112493045063
0.009885943503629282
0.005552554532519412
0.0023248655784613905
0.00044758789173509684
3.5983386309801826e-05
0.0010602859049234521
0.003347696925633091
0.006602886493940089
0.01044383297731605
0.014448207726569694
0.01820273817725771
0.021348379966720895
0.023615607817432938
0.024844972890615945
0.024992672191314846
0.02412163608610919
0.022381448856054267
0.0199811959850881
0.01715981486412438
0.013913692255636146
0.009590980893531914
0.004573948319939195
0.0008157399365326217
0.00024079846149343244
0.003514185049008134
0.00961192838431676
0.01656871897478383
0.022119514240832833
0.024276521636900507
0.022824502756503825
0.019850053862573675
0.013312679040831388
0.01447326845978599
0.013491760139539788
0.009994493152997361
0.005425525590764381
0.0015974698276937538
1.0450469490975815e-06
0.0016630129555234327
0.006594445409837914
0.013185347207645451
0.018847305193485177
0.021457637961850986
0.021404358230243555
0.020240613124328056
0.01837697009536856
0.015925842179510312
0.01305815673136594
0.009992304587764612
0.006976330190113022
0.004264427821333182
0.0020898323349980126
0.0006373587254392349
1.9655174576135053e-05
0.000260988310283617
0.0012919870165009908
0.0029567467190168865
0.005032086169745467
0.0072558401948698325
0.009360510537701207
0.011106459824040451
0.012309845885479261
0.012861478753496865
0.01273406641446142
0.011978117357460029
0.010707953652655821
0.009081018629277612
0.007274130890791891
0.005460368065236765
0.003635914328735884
0.0015425011840180295
5.887380336348292e-05
0.0009735065849621286
0.005180472190978888
0.011848424195261692
0.01897313227195772
0.024511058785839035
0.026883259583966396
0.02551095132998616
0.02184781675257918
0.01831078901114077
0.015108043545031634
0.017021063595686756
0.01764238099490591
0.015990814835965504
0.012336764796997763
0.007731703673832101
0.003388525142683086
0.000551573830511527
0.0001610418186122349
0.002003964045994418
0.004525238015485944
0.005899304888923533
0.005949692232608291
0.005528530898208509
0.004870049920294257
0.004025900791745261
0.0030725981672927
0.002104983047835165
0.001226145419888616
0.0005347062714292254
0.00011117200822232733
5.454494037433633e-06
0.00022784321011340436
0.000745271235579914
0.0014840078506126576
0.002338750796777842
0.0031870904004976212
0.003907039276100995
0.0043950590121857825
0.004581467077562623
0.004440751959836339
0.003995017628578786
0.003310097019570842
0.002485025725587129
0.0016367642731116743
0.0008828080537062494
0.00032446298422643985
3.337923507524085e-05
6.156841722638346e-05
0.0007863971311844254
0.0032802069956766617
0.008300935294184245
0.015276583969108385
0.022328421179518478
0.02743175937713611
0.02930919166513883
0.027561252476041378
0.022990518601833904
0.017989929500912924
0.014537245105239075
0.015000619826296963
0.017342150505938098
0.019407955688682046
0.02007271040701441
0.0187287456456317
0.015596739043927959
0.011278417077270059
0.006658645315953702
0.00287768097827871
0.0007356500008891452
5.636606468574387e-05
1.721010259395367e-06
5.905496786024166e-06
2.1631632846456806e-06
1.1857085573609025e-07
9.013279404717712e-06
4.1474851846328376e-05
0.00011114809593441583
0.00022931416047380847
0.0004011198791405236
0.0006223007920801129
0.0008773307971041214
0.0011397221215428486
0.0013748336775220862
0.0015449804267783946
0.001616212462699383
0.0015656904915725264
0.0013884189153305093
0.0011020405693751465
0.0007485698937171441
0.0003923177185272662
0.00011378227740432034
1.9185324406383657e-08
0.0001326028731104238
0.0005749618649768347
0.0013611046578810946
0.002487727981207305
0.003911185608062906
0.005711214992951728
0.00868470647626416
0.013635145587080112
0.020052108163835958
0.026318895187580755
0.030488438999954643
0.031384582681286084
0.028869704213698975
0.02363626917163551
0.01729961426659475
0.012233796618295564
0.009475814799168359
0.013066358656935128
0.015412840338747286
0.01834292044485642
0.02094096344554201
0.022176060657621913
0.021675609335342693
0.01947077553427974
0.015897788101232137
0.011745344921875414
0.008080645879726414
0.005651803785408571
0.004597284592826361
0.00431306530773426
0.0041582161997120995
0.00400756939239332
0.0038616238628582577
0.003716494393744015
0.003564082846490096
0.0033928167423866967
0.003189073756188549
0.002939338588891435
0.0026330201713147066
0.00226573189298656
0.0018426041841883916
0.001381176795209444
0.0009133268084467166
0.0004857952003469107
0.00015900158560188613
3.846607928993079e-06
9.646174271119663e-05
0.0005109980626653956
0.0013108735811859073
0.0025392083103219633
0.00420962820875107
0.006298927400502815
0.008742936545904129
0.011437040273179122
0.01424185420272315
0.01718007851267548
0.020940209822777542
0.025708049771715095
0.03021016858781908
0.03276853975735105
0.03229116147977265
0.028785544969641082
0.02303417399702108
0.016272710804951827
0.010138228789002203
0.00621076199963582
0.00451024303336358
0.00983859970567625
0.01180199498877387
0.014839829672401864
0.018416411414187327
0.02149771292440841
0.023458036617199245
0.02399715806418795
0.023026147877916712
0.020805401272095462
0.018063695121990346
0.015700544347302343
0.014307439460982674
0.013538057780963503
0.012766236240025035
0.011879246174329906
0.010898493005229173
0.009842091182755116
0.008725449835897498
0.007562954446109868
0.006370606314078359
0.00516905822447297
0.003986517560614789
0.0028609057703576054
0.001840718094135665
0.0009843488415152322
0.0003578255799284442
3.1107924783227575e-05
7.330135687260626e-05
0.0005470149196802897
0.001502183110036717
0.0029695782420169547
0.004954458950185471
0.007430806560251328
0.010337119263596158
0.013574849914969808
0.017010150298290578
0.020480066510233888
0.023802859186933964
0.026881035044223858
0.029837061644367054
0.0322186276190041
0.03285201488106309
0.03089566076774667
0.02646069006133519
0.020434029794199962
0.01391486826108649
0.008018593215779924
0.003785257838812028
0.001689872258743714
0.0010367802100495667
0.006146380307769075
0.007487330095597002
0.009966709811826202
0.013420872853039617
0.017085806594864115
0.020371210478011107
0.022899802058329897
0.024394513210050373
0.024704717747620085
0.0240006230674419
0.022774871404144928
0.021518727780285195
0.02024969576467165
0.018776661464474317
0.017100105880004855
0.01527207222753071
0.013343692617243424
0.011364782088478268
0.009384543313438753
0.007452996980263577
0.005622643082883248
0.003949617157216159
0.002493875272825647
0.0013178788276527677
0.00048396906163801067
5.060415847984351e-05
6.801532674011308e-05
0.000573835401400019
0.0015890507585489544
0.003114510970048745
0.00512805628678091
0.0075824154265463194
0.010403968902307595
0.01349290990099369
0.016725490842605713
0.019958664419913383
0.023037526346799602
0.02580540709596433
0.02806506011453547
0.029318421401399192
0.02879353051571287
0.026041710450379982
0.021315560889225454
0.01557094934767537
0.009904952739489058
0.005143288244200769
0.0018609041316459823
0.00029925241656933546
1.6219477856082043e-07
2.4553967631419483e-05
0.0028769954526579474
0.00356464383071133
0.005115906939223721
0.007612635730560898
0.01065392134381402
0.013847171746586829
0.01690465224887381
0.019558846403328865
0.021482582555032496
0.022414122506947156
0.022322472323145444
0.021354558920951585
0.019809669359561598
0.017976766869027973
0.015972301841158897
0.013865427536721995
0.01172278650309382
0.00960740335088132
0.0075784190173337745
0.005691438802125489
0.003998974829248347
0.0025505015857497683
0.0013917580189693728
0.0005631527110941123
9.7470187228415e-05
1.7283593434820443e-05
0.00033258194265900693
0.001039045387895993
0.00211718011564402
0.003532312504915504
0.005235162676131019
0.007163018165778274
0.009241163714068122
0.011384973545517527
0.01350282390372456
0.01549999383606308
0.017283735474704128
0.018769158572447295
0.019753228502510375
0.019484409171171953
0.01731596523648861
0.013549340242442738
0.009081295212503714
0.0049780727646640535
0.0019611560109855683
0.00031826050907561544
5.360296678720959e-05
0.0008019634314905211
0.0016203488144781787
0.001734405727438471
0.0007241005313435234
0.0009250520911217537
0.0015586286375257007
0.0027912437218279326
0.004529618960158185
0.006607062773548762
0.00887964448250531
0.011186090247103413
0.013231567722414066
0.014613203576824297
0.015004345531613499
0.014292848373073217
0.012872486064633846
0.011252532620277507
0.009589803353333181
0.007943653806267303
0.006366082829526738
0.004901242137493789
0.003585609153966251
0.0024485410358227595
0.001512839215123007
0.0007950074997125774
0.0003051072837064845
4.6218441053009555e-05
1.3805438524238563e-05
0.00019529352292792083
0.0005701840663681039
0.001110845990599488
0.001783953233096496
0.002552308007592586
0.0033767253603199897
0.004217793740250227
0.005037305788569956
0.005799487395376366
0.006472148520183055
0.007027877313377977
0.007445260054652022
0.007710116488138348
0.007704756656569606
0.006905117036677748
0.00507571764406311
0.0028157172523925887
0.0009448027151503552
4.812934522672628e-05
0.00026718833089205596
0.001450096795953598
0.0032768692680339127
0.0051448926979566255
0.006083970948422554
0.005689297043991031
1.0695968351332488e-07
1.1538956523218636e-06
4.3348048815474604e-05
0.00025812018437627686
0.0007297491538922667
0.0014526430888309608
0.0023952818199435926
0.003504014978116149
0.004623431716499074
0.005466876267029322
0.005731463589954313
0.005269376384168198
0.004382312766105704
0.003466267953479674
0.0026268591860433258
0.0018901186131493647
0.0012721837700529475
0.0007804509762626648
0.0004150818850830787
0.00017051205025819861
3.674171593537234e-05
3.0083549989953514e-07
4.496173981282532e-05
0.00015234429038447819
0.0003026201778266907
0.000475449131580298
0.0006511893816103578
0.000812238340914263
0.0009443060226435706
0.0010373525141228858
0.0010860148510950505
0.0010894929397995674
0.0010509624782593238
0.0009766969915279583
0.000875079708173994
0.0007556212835808859
0.000628047808817796
0.0005014653637283583
0.00035903612696833577
0.00013844398910990458
1.6242531634103126e-06
0.00035532569836191715
0.0014887732930619583
0.003365596945185126
0.00570757627404863
0.008197164402210806
0.010486246693644933
0.012054575831147937
0.012196824308856734
0.010874110459525908
0.0005817988420203692
0.0006766511688961087
0.0005904653677446009
0.00037721662503026045
0.00017359547123317826
4.238335799512633e-05
9.206907307636035e-08
5.012481472743629e-05
0.0001714520209298539
0.0002905572856876355
0.00031012533819493567
0.00019660330894881624
6.102752627112948e-05
1.566837632935412e-06
2.5304274925959626e-05
0.00011839943665695761
0.0002616074811568197
0.00043301405737559723
0.0006104350557457978
0.0007732860348608693
0.0009039075187328586
0.0009884923102018615
0.001017795146616562
0.000987774874945561
0.000900193689534179
0.0007630767907595597
0.0005907901041212537
0.0004035162464508098
0.00022593249316216926
8.509429833448486e-05
7.738328176167376e-06
1.7331995205715073e-05
0.00013130171629465112
0.00035876990528527805
0.0006990397286202487
0.0011409253356972036
0.0016629650196088993
0.0022345404658487217
0.002873568909027334
0.003854264795872951
0.005505518190215047
0.007856664160369743
0.010690048656379488
0.013593916154729543
0.016174273599017873
0.018183810933007995
0.019429530801483064
0.019632002754377934
0.018442048919172074
0.0160602208498512
0.002007665541988203
0.0023944700776633273
0.0025714579589245813
0.0025356695078277204
0.0024022161185733777
0.0022345191650832894
0.002047571356235943
0.0018498819748159897
0.0016826012707713556
0.0016170744470236128
0.0017291118221856865
0.002087526140521064
0.0026309705065785992
0.003202551631007963
0.0037279402270013165
0.004165287471524062
0.004478179353227165
0.004639052130478766
0.004631402802354532
0.004450927757560578
0.004105802718782086
0.0036164267593239703
0.0030148610858498496
0.0023440355459809167
0.001656563678333733
0.0010129113431701935
0.0004785767889967404
0.00012020223975026398
5.943392743512445e-07
0.00017313270885672223
0.0006761327252771508
0.0015279125123845068
0.00272319582079399
0.004231285568550352
0.005996237542485029
0.007938970441974346
0.00996129699070896
0.011951708608657192
0.013873756033805697
0.01602832976110376
0.01866145378405618
0.021551313188552617
0.024289976916873433
0.026444209170174194
0.027739169982447884
0.028096993157120463
0.027517882594336903
0.025970641952077947
0.023411895389182515
0.02013420711238925
0.003677474229300522
0.0044077467540835965
0.005027873734640303
0.005518863912765914
0.005952109579279037
0.006364594317637226
0.006752503587263441
0.007104459804498965
0.007450131972851325
0.007872635848052196
0.008471439174179423
0.009310380430286137
0.010246439271166023
0.011041304489103754
0.011592760124409825
0.011850705057960422
0.011782342423026839
0.011375325545188242
0.010639193205395843
0.00960531842648815
0.00832577045569123
0.006871348761261733
0.0053290956612666
0.0037991415612802656
0.0023907882376434596
0.001217562618936212
0.0003910759781912622
1.3807045397222467e-05
0.0001711638085385403
0.000923582369461005
0.002299483949133366
0.004290057845005124
0.0068464549314640995
0.009879867201851734
0.013264561037131804
0.016843662478012042
0.020437591271597704
0.023854636302780764
0.026958624988988558
0.029843011002055785
0.032548776271697756
0.03482149482557284
0.03635647729756035
0.03691869909497279
0.03643200225734598
0.03496933056692012
0.032670198995243385
0.029676101310823162
0.02613934885944442
0.022342617521629568
0.00506180907673405
0.006054120844561277
0.007065869533533993
0.008087560758864007
0.00915219712863039
0.010270042752492204
0.01142174742422434
0.01257577796924147
0.013717407191644987
0.014857827540757039
0.016011240415219466
0.01716101269914086
0.018168285776989302
0.018855217530154435
0.019136308803533814
0.01896848365835107
0.01833342917341398
0.017240090484713404
0.015725383332701636
0.013853352264307154
0.011713046916299857
0.009415302589416788
0.0070885594803108765
0.0048736512768317785
0.0029175188491213162
0.0013657588954812836
0.00035424271981976483
3.194157855216538e-08
0.00039225304525019195
0.0015837334132888527
0.003584243660752621
0.0063562957975101045
0.009813838213836041
0.01382441510534922
0.018214602696096562
0.022778466536871027
0.027288720485187126
0.03151012835434796
0.03522935884706252
0.03830798772240139
0.04061173937877361
0.041973063527754366
0.042280897509089185
0.04151302066744881
0.03974349459329612
0.03712461049989436
0.033855854113684206
0.030157036543092944
0.026265083778548557
0.02241193438470387
0.005840013269692124
0.006939640698166986
0.008142332929715584
0.009449478486621496
0.010867995445455823
0.012389601495555876
0.013986520126810913
0.015616062549395631
0.017228021777254555
0.018766142997391388
0.020163056733638766
0.021337275264827146
0.022189823939449828
0.022632330560783342
0.022609162047798267
0.02209038950712047
0.021071941264890242
0.019577312255028255
0.017657899833818606
0.015391893206200855
0.012881902887902866
0.010251329917786937
0.007639495821162772
0.005195549184200184
0.003071272287360744
0.0014130253267686135
0.0003530309487421074
5.83528195407957e-07
0.0004336969539838174
0.00169188009410249
0.003770733585569404
0.006619043591684088
0.010138719820459535
0.014187933753984852
0.018587332051656066
0.023129008834973562
0.02758793649024141
0.03173521381310993
0.03534479339429464
0.038180558523858404
0.040048083851470496
0.04085750703907475
0.04061023816252821
0.039381632220545984
0.037295577309037306
0.03451179396118574
0.031223934618623453
0.027651636268080808
0.024029818877949014
0.020539704671424217
0.005934413690452108
0.006983455750284638
0.008146785838199843
0.009426503304053686
0.01081600462829268
0.012297505044872085
0.013839873125043837
0.015398250273571371
0.01691406571729907
0.018316034926523127
0.019524043853773106
0.020456907854564693
0.021049771517890274
0.021257280739649338
0.021044987901012654
0.020396076395099664
0.019315536450885604
0.017831237705374838
0.015993914561418045
0.013876097697643634
0.011569964321591181
0.009183979626505608
0.006838415887040404
0.004659825273030446
0.002774713369810887
0.0013027084611890903
0.0003495852821917312
4.749413941908593e-07
0.00031371069462693424
0.0013156347832040422
0.0029968459722127323
0.005310294216739083
0.008171602781882727
0.011461834994410955
0.015032767588941903
0.0187144747656472
0.022324811858619887
0.025680265124763863
0.028601521077661132
0.03090555127936813
0.03244719759032093
0.03316114545389928
0.0330463356330638
0.03215432507895938
0.0305742505327699
0.028425101862440558
0.025853751027956975
0.023027549978232677
0.02012183951148795
0.017278004985465233
)
;

boundaryField
{
    "(inlet|outlet)"
    {
        type            zeroGradient;
    }
        "(front|back)"
        {
            type            empty;
        }
    "(top|hills)"
    {
     	type            zeroGradient;
    }
}

