/*--------------------------------*- C++ -*----------------------------------*\
| =========                 |                                                 |
| \\      /  F ield         | OpenFOAM: The Open Source CFD Toolbox           |
|  \\    /   O peration     | Version:  v1806                                 |
|   \\  /    A nd           | Web:      www.OpenFOAM.com                      |
|    \\/     M anipulation  |                                                 |
\*---------------------------------------------------------------------------*/
FoamFile
{
    version     2.0;
    format      ascii;
    class       volVectorField;
    location    "0";
    object      wallShearStress;
}
// * * * * * * * * * * * * * * * * * * * * * * * * * * * * * * * * * * * * * //

dimensions      [0 2 -2 0 0 0 0];


internalField   uniform (0 0 0);

boundaryField
{
    inlet
    {
        type            cyclic;
    }
    outlet
    {
        type            cyclic;
    }
    top
    {
        type            calculated;
        value           nonuniform List<vector> 
100
(
(-0.00930285 1.86737e-05 0)
(-0.0043778 -7.39376e-06 -3.6492e-25)
(-0.00727023 -3.78695e-06 1.02382e-23)
(-0.00616473 9.20872e-06 -3.01629e-25)
(-0.00620214 7.3066e-07 0)
(-0.0060817 3.74797e-06 -1.3472e-25)
(-0.00591812 4.0124e-06 1.31186e-25)
(-0.00576819 4.11812e-06 9.75938e-25)
(-0.00561502 4.36092e-06 -1.88358e-24)
(-0.00545789 4.43554e-06 9.0912e-25)
(-0.00530211 4.35712e-06 -2.7906e-23)
(-0.0051497 4.24186e-06 2.70757e-23)
(-0.0049993 4.07147e-06 -1.653e-24)
(-0.00485323 3.81388e-06 1.6107e-24)
(-0.00471251 3.55796e-06 2.53615e-23)
(-0.00457573 3.27975e-06 3.14581e-24)
(-0.00444363 2.9571e-06 9.29391e-24)
(-0.0043175 2.64224e-06 0)
(-0.00419573 2.36324e-06 3.09121e-24)
(-0.00407869 2.04232e-06 -6.13803e-24)
(-0.00396855 1.77333e-06 1.22844e-23)
(-0.0038628 1.49084e-06 3.08933e-24)
(-0.00376676 1.42463e-06 -3.20575e-24)
(-0.00365806 1.4592e-06 6.47512e-24)
(-0.00356288 6.19922e-07 7.78644e-26)
(-0.00348937 6.17825e-07 7.72665e-26)
(-0.00341236 5.29478e-07 -3.43051e-24)
(-0.00334284 3.66354e-07 0)
(-0.00327877 2.29337e-07 0)
(-0.00322071 8.75378e-08 0)
(-0.00316884 -5.13404e-08 3.84822e-24)
(-0.00312328 -1.87117e-07 -3.84841e-24)
(-0.00308413 -3.19866e-07 0)
(-0.00305145 -4.50515e-07 -2.05573e-24)
(-0.00302536 -5.79609e-07 2.0558e-24)
(-0.00300591 -7.07304e-07 0)
(-0.00299318 -8.34495e-07 0)
(-0.00298723 -9.61159e-07 0)
(-0.00298811 -1.0875e-06 0)
(-0.00299585 -1.21411e-06 -2.31879e-24)
(-0.0030105 -1.34111e-06 4.68003e-24)
(-0.00303206 -1.46838e-06 -2.36123e-24)
(-0.00306051 -1.595e-06 0)
(-0.00309574 -1.7193e-06 0)
(-0.00313757 -1.83975e-06 0)
(-0.00318576 -1.9541e-06 0)
(-0.00323994 -2.05931e-06 -6.49318e-25)
(-0.00329962 -2.15234e-06 6.49274e-25)
(-0.00336418 -2.22998e-06 1.66567e-25)
(-0.00343287 -2.28954e-06 -1.66555e-25)
(-0.00350484 -2.32923e-06 -1.70327e-25)
(-0.0035792 -2.34859e-06 1.70314e-25)
(-0.00365502 -2.34832e-06 0)
(-0.00373141 -2.33051e-06 0)
(-0.00380753 -2.29931e-06 0)
(-0.00388274 -2.25999e-06 1.41722e-24)
(-0.00395652 -2.21797e-06 -1.41711e-24)
(-0.00402854 -2.17946e-06 0)
(-0.00409865 -2.15062e-06 0)
(-0.0041669 -2.13696e-06 -2.87281e-24)
(-0.00423349 -2.14324e-06 2.87261e-24)
(-0.00429871 -2.17314e-06 0)
(-0.00436298 -2.22987e-06 -2.87033e-24)
(-0.00442677 -2.31623e-06 2.87015e-24)
(-0.0044906 -2.43298e-06 2.85279e-24)
(-0.00455497 -2.58065e-06 -5.69157e-24)
(-0.00462039 -2.76093e-06 2.83878e-24)
(-0.00468734 -2.97372e-06 0)
(-0.00475636 -3.21921e-06 -5.5518e-24)
(-0.00482772 -3.49591e-06 5.69555e-26)
(-0.00490211 -3.80568e-06 5.49399e-24)
(-0.00497919 -4.142e-06 0)
(-0.00506052 -4.51553e-06 -5.27171e-24)
(-0.00514362 -4.89742e-06 5.27124e-24)
(-0.00523386 -5.35043e-06 5.07778e-24)
(-0.00532108 -5.69372e-06 -5.07728e-24)
(-0.00542299 -6.55495e-06 4.84502e-24)
(-0.00553227 -6.71979e-06 -1.35682e-25)
(-0.00562755 -6.91862e-06 -9.34199e-24)
(-0.00572666 -7.39843e-06 1.56985e-25)
(-0.00583056 -7.73525e-06 4.54752e-24)
(-0.00593684 -7.95343e-06 0)
(-0.00604449 -8.02136e-06 -2.11721e-23)
(-0.00615225 -7.96469e-06 4.24538e-24)
(-0.00626052 -7.77861e-06 0)
(-0.0063674 -7.43099e-06 3.09834e-23)
(-0.00647098 -6.95931e-06 0)
(-0.00657018 -6.3928e-06 -1.69646e-24)
(-0.00666466 -5.68884e-06 1.74165e-24)
(-0.00674653 -4.84155e-06 0)
(-0.00682449 -3.96685e-06 8.42129e-25)
(-0.00687738 -2.83835e-06 6.99265e-25)
(-0.0069391 -1.85583e-06 0)
(-0.00693262 -5.49196e-07 -5.99184e-26)
(-0.00701788 2.04524e-08 6.15397e-26)
(-0.00685729 1.77625e-06 -8.4194e-26)
(-0.00712815 4.0906e-07 8.58629e-26)
(-0.00646326 4.21763e-06 -5.30525e-26)
(-0.00770505 -3.35134e-06 5.33377e-26)
(-0.00503328 2.40937e-06 2.83584e-26)
)
;
    }
    hills
    {
        type            calculated;
        value           nonuniform List<vector> 
100
(
(-0.00963531 2.34721e-05 -8.75881e-39)
(-0.00791409 0.000433031 -1.70477e-21)
(-0.00712143 0.00130582 9.12571e-21)
(0.000625153 -0.000140612 -1.39849e-20)
(0.00418172 -0.00228366 -9.52381e-21)
(0.00373788 -0.00245394 4.96699e-26)
(0.00283537 -0.00209289 -9.89601e-26)
(0.00230002 -0.00181165 -3.9678e-23)
(0.00204128 -0.00161875 -1.31777e-21)
(0.00185434 -0.00144751 -2.03633e-25)
(0.00176462 -0.00135277 -2.62709e-21)
(0.00168057 -0.00127227 3.02428e-21)
(0.00164315 -0.00123374 -7.65964e-25)
(0.00163508 -0.00122106 -1.82527e-24)
(0.00164848 -0.00120676 7.53998e-21)
(0.00168491 -0.00117888 0)
(0.00173721 -0.00112615 -7.96919e-21)
(0.00178809 -0.00103155 4.01105e-21)
(0.00185338 -0.000905789 3.98857e-21)
(0.00193064 -0.000760428 -3.96756e-21)
(0.00200429 -0.000589764 3.95406e-21)
(0.00207088 -0.000394735 -3.97395e-21)
(0.00216553 -0.000184279 5.55247e-24)
(0.00250823 -2.23539e-05 3.98153e-24)
(0.00284369 -1.13208e-05 0)
(0.00295113 -8.83151e-06 0)
(0.00299541 -8.38416e-06 0)
(0.00296995 -8.4843e-06 0)
(0.00290118 -8.67898e-06 0)
(0.00278986 -8.76959e-06 0)
(0.00264462 -8.45549e-06 -3.39123e-24)
(0.00246705 -7.48835e-06 3.35517e-24)
(0.00225907 -5.43073e-06 1.84157e-24)
(0.00201674 -2.09223e-06 -3.70648e-24)
(0.00173778 2.30705e-06 1.85701e-24)
(0.00142335 7.64377e-06 -1.9618e-24)
(0.00107335 1.39854e-05 1.89789e-24)
(0.000686111 2.08318e-05 0)
(0.000264918 2.58707e-05 -1.92725e-24)
(-0.000160091 2.53015e-05 -5.11215e-26)
(-0.000537127 1.98239e-05 2.00143e-24)
(-0.000855364 1.38604e-05 1.08398e-24)
(-0.00112652 9.09101e-06 -1.11704e-24)
(-0.0013611 5.5145e-06 -0)
(-0.00156611 2.86074e-06 0)
(-0.00174635 8.88983e-07 0)
(-0.00190503 -6.00306e-07 -6.57254e-25)
(-0.00204414 -1.74217e-06 3.27776e-25)
(-0.00216527 -2.57064e-06 1.68061e-25)
(-0.00227075 -3.06539e-06 -1.74093e-25)
(-0.00236362 -3.26031e-06 0)
(-0.00244617 -3.24667e-06 -3.65536e-25)
(-0.00251987 -3.10555e-06 3.67475e-25)
(-0.00258568 -2.8915e-06 0)
(-0.00264424 -2.638e-06 -0)
(-0.00269606 -2.36441e-06 1.54539e-24)
(-0.00274158 -2.0843e-06 -1.54976e-24)
(-0.00278118 -1.80721e-06 -0)
(-0.00281517 -1.54098e-06 0)
(-0.00284383 -1.29011e-06 0)
(-0.00286732 -1.06038e-06 0)
(-0.00288588 -8.52068e-07 0)
(-0.00289943 -6.70918e-07 -3.30426e-24)
(-0.00290826 -5.10813e-07 6.63811e-24)
(-0.00291186 -3.82292e-07 -3.33358e-24)
(-0.00291086 -2.67312e-07 -0)
(-0.00290382 -1.90465e-07 3.40768e-24)
(-0.0028925 -1.07473e-07 6.31189e-19)
(-0.00287311 -8.34025e-08 6.38706e-19)
(-0.00285089 -4.43662e-09 -6.97279e-24)
(-0.00281584 -4.48476e-08 6.97482e-24)
(-0.00278261 7.90928e-08 0)
(-0.00272367 -9.25312e-08 0)
(-0.00267891 1.74716e-07 0)
(-0.00257232 -4.15099e-07 0)
(-0.00250472 -9.01829e-07 -7.3661e-24)
(-0.00219909 -1.12499e-05 -2.13825e-22)
(-0.00195978 -0.000162352 -3.91168e-21)
(-0.00208051 -0.000404833 8.06428e-21)
(-0.00220474 -0.000668535 -1.69736e-20)
(-0.0023784 -0.000966013 1.80578e-20)
(-0.0025782 -0.00129737 -1.17549e-38)
(-0.00285722 -0.00168913 1.01194e-23)
(-0.00323583 -0.00213597 -2.15389e-23)
(-0.00368836 -0.0026097 2.29295e-20)
(-0.00420149 -0.00309516 -4.70198e-38)
(-0.00477144 -0.00357495 5.68951e-24)
(-0.00528741 -0.00398935 -5.84847e-24)
(-0.00578196 -0.00441762 -2.3288e-20)
(-0.00637423 -0.00495188 2.28543e-20)
(-0.00712787 -0.00565244 2.57193e-24)
(-0.00825419 -0.00667997 -2.66577e-24)
(-0.0103032 -0.00827873 3.58334e-20)
(-0.0132479 -0.0101181 0)
(-0.0176437 -0.0120799 -5.16942e-21)
(-0.0231971 -0.0130636 -6.21232e-25)
(-0.0272863 -0.0105558 5.7712e-20)
(-0.0211795 -0.00422011 -4.74627e-26)
(-0.0124864 -0.000803752 1.37753e-40)
(-0.00498449 -3.49084e-05 5.45089e-22)
)
;
    }
    front
    {
        type            empty;
    }
    back
    {
        type            empty;
    }
}


// ************************************************************************* //
