/*--------------------------------*- C++ -*----------------------------------*\
| =========                 |                                                 |
| \\      /  F ield         | OpenFOAM: The Open Source CFD Toolbox           |
|  \\    /   O peration     | Version:  v1806                                 |
|   \\  /    A nd           | Web:      www.OpenFOAM.com                      |
|    \\/     M anipulation  |                                                 |
\*---------------------------------------------------------------------------*/
FoamFile
{
    version     2.0;
    format      ascii;
    class       volScalarField;
    location    "5";
    object      epsilon;
}
// * * * * * * * * * * * * * * * * * * * * * * * * * * * * * * * * * * * * * //

dimensions      [0 2 -3 0 0 0 0];


internalField   nonuniform List<scalar> 
8000
(
0.0812171
0.0712355
0.0486309
0.0266554
0.0270419
0.0573584
0.0618082
0.0497068
0.0391802
0.0318041
0.0266128
0.0228038
0.019993
0.0181524
0.0171874
0.0170961
0.0178381
0.0193309
0.0216294
0.0248898
0.0291547
0.0345301
0.0414416
0.0513016
0.0646353
0.0790256
0.0937423
0.108885
0.123808
0.137855
0.149894
0.158584
0.163132
0.164696
0.163907
0.158846
0.148906
0.135476
0.122724
0.119375
0.1277
0.139733
0.150873
0.159674
0.165823
0.16945
0.171006
0.171244
0.170741
0.169584
0.167584
0.164601
0.160712
0.156129
0.15108
0.145766
0.140344
0.134929
0.129606
0.124432
0.119447
0.114674
0.110128
0.105812
0.101735
0.0978909
0.0942918
0.0909269
0.087827
0.0849731
0.0824712
0.0802748
0.0786081
0.0773283
0.0770342
0.0771888
0.0793272
0.0865403
0.0939761
0.101139
0.108122
0.115444
0.123321
0.130874
0.137336
0.142605
0.145819
0.146852
0.148747
0.152518
0.159732
0.175467
0.201587
0.234777
0.277776
0.304721
0.245028
0.162506
0.10588
0.0784255
0.268828
0.234281
0.158249
0.0847645
0.0731851
0.132246
0.127328
0.0979094
0.0760256
0.0614582
0.0516314
0.0445465
0.0395193
0.0363711
0.0349307
0.0352113
0.0371526
0.0406412
0.045858
0.053066
0.0622567
0.073607
0.088151
0.109006
0.135517
0.161008
0.184326
0.204789
0.221458
0.233381
0.239749
0.239907
0.233805
0.222434
0.207126
0.18845
0.167489
0.14646
0.129939
0.125996
0.13593
0.151881
0.16894
0.185194
0.199893
0.212744
0.22371
0.232934
0.240509
0.246408
0.250607
0.253128
0.254097
0.253706
0.252157
0.249641
0.246334
0.242387
0.237933
0.233089
0.227953
0.222608
0.217124
0.211562
0.205971
0.200394
0.194873
0.189451
0.184166
0.179072
0.174263
0.169827
0.165867
0.162501
0.159906
0.158018
0.156339
0.161161
0.172031
0.186153
0.203368
0.223515
0.247053
0.272335
0.297008
0.319933
0.338946
0.352498
0.366292
0.383916
0.41021
0.458517
0.538285
0.646783
0.793572
0.916481
0.814222
0.572047
0.378017
0.276303
0.596681
0.517544
0.344155
0.182918
0.144132
0.242342
0.222187
0.166706
0.128166
0.103243
0.0868294
0.07513
0.0670037
0.0620537
0.0600303
0.060993
0.0648514
0.0713312
0.0804924
0.0924184
0.106791
0.123704
0.144973
0.175046
0.209002
0.235606
0.254903
0.266702
0.271841
0.270808
0.264461
0.253487
0.238836
0.221811
0.203639
0.184724
0.16559
0.14749
0.133614
0.130231
0.138417
0.151986
0.16707
0.182202
0.196837
0.210755
0.223893
0.236286
0.247913
0.258646
0.268354
0.276925
0.284328
0.290585
0.295739
0.299837
0.302928
0.305059
0.306277
0.306632
0.306171
0.304949
0.303013
0.300421
0.297218
0.293471
0.289207
0.284514
0.279394
0.274008
0.26831
0.26263
0.25665
0.25103
0.244701
0.238851
0.228983
0.224216
0.234191
0.254262
0.284111
0.323286
0.373065
0.431299
0.492806
0.553578
0.608934
0.654324
0.697778
0.746778
0.811024
0.916213
1.08534
1.31973
1.63731
1.92293
1.78704
1.28175
0.85551
0.630745
1.14654
0.992937
0.656445
0.345268
0.253265
0.391918
0.33401
0.244191
0.186356
0.149898
0.126509
0.110069
0.0989306
0.0922812
0.0896504
0.0910014
0.0959489
0.103624
0.113435
0.124854
0.13738
0.151767
0.170555
0.195835
0.220537
0.237627
0.248664
0.254141
0.255164
0.252199
0.245821
0.236377
0.22437
0.210558
0.195712
0.180093
0.164106
0.148813
0.136982
0.133959
0.140681
0.152022
0.164668
0.177335
0.189559
0.201175
0.212154
0.22255
0.232371
0.241557
0.250043
0.257776
0.264753
0.271002
0.276561
0.281466
0.285745
0.289421
0.292507
0.295014
0.296949
0.298317
0.299113
0.299344
0.298996
0.298078
0.296558
0.294463
0.29172
0.288413
0.284389
0.279908
0.274493
0.26876
0.261329
0.253593
0.241512
0.232182
0.238159
0.256894
0.2881
0.332537
0.393306
0.471372
0.564035
0.667235
0.77505
0.880056
0.986647
1.10266
1.24123
1.43554
1.71956
2.09678
2.57019
2.98628
2.93496
2.27991
1.61289
1.23956
1.85582
1.61119
1.09736
0.599252
0.42006
0.556021
0.425693
0.29978
0.22543
0.180402
0.152461
0.133427
0.121048
0.113823
0.110679
0.111077
0.114167
0.118836
0.124647
0.131644
0.140109
0.151199
0.166664
0.186333
0.205063
0.218924
0.228438
0.23381
0.235681
0.234313
0.23005
0.223112
0.213848
0.20282
0.190627
0.177522
0.163889
0.150701
0.140425
0.137667
0.143231
0.152824
0.163562
0.174284
0.184565
0.194257
0.203338
0.211855
0.219821
0.227199
0.233958
0.240071
0.24555
0.250429
0.25475
0.258553
0.26187
0.264727
0.267143
0.269133
0.270706
0.271869
0.272619
0.272958
0.272872
0.272358
0.271387
0.269959
0.268013
0.265576
0.262532
0.259
0.254684
0.249888
0.243808
0.237264
0.228535
0.221467
0.225727
0.241504
0.268674
0.308193
0.362781
0.434087
0.521825
0.624819
0.740744
0.867421
1.00955
1.1744
1.37522
1.63693
1.97989
2.39521
2.84119
3.17613
3.24457
2.95931
2.42013
2.03684
2.37452
2.08011
1.53922
0.936836
0.657723
0.710706
0.497306
0.335031
0.244886
0.192683
0.161032
0.140138
0.126845
0.119075
0.115213
0.114243
0.115265
0.117586
0.121185
0.126407
0.133657
0.143796
0.157765
0.174641
0.19091
0.203787
0.213133
0.219023
0.221859
0.221831
0.219183
0.214088
0.206823
0.197838
0.187624
0.176427
0.164615
0.15309
0.144062
0.141506
0.146105
0.154256
0.163442
0.172603
0.18134
0.189515
0.197109
0.204159
0.210679
0.216646
0.222047
0.226869
0.231129
0.234862
0.238108
0.240907
0.24329
0.245285
0.246912
0.248189
0.249127
0.249735
0.250017
0.249975
0.249605
0.248902
0.247851
0.246445
0.244653
0.24248
0.239867
0.236862
0.233334
0.229408
0.224751
0.2198
0.21432
0.210109
0.213841
0.227348
0.250776
0.284967
0.331763
0.392142
0.465928
0.552486
0.650798
0.761978
0.892015
1.04823
1.24298
1.49136
1.79295
2.12544
2.42667
2.59936
2.64427
2.74378
2.71515
2.59856
2.43666
2.1829
1.78976
1.28008
0.951007
0.869136
0.571146
0.368526
0.260609
0.20042
0.1645
0.141219
0.126357
0.117417
0.11256
0.110594
0.110651
0.112225
0.115324
0.120246
0.127328
0.137196
0.150353
0.165726
0.180721
0.193089
0.202417
0.20872
0.212267
0.213211
0.211741
0.208006
0.202239
0.194813
0.18614
0.176455
0.166114
0.155953
0.147962
0.145559
0.149321
0.156236
0.164102
0.17195
0.179406
0.186337
0.192721
0.198591
0.203957
0.208808
0.213142
0.216953
0.220262
0.223102
0.225511
0.227526
0.229178
0.230492
0.231491
0.232192
0.232608
0.232749
0.232621
0.23223
0.231574
0.230654
0.229461
0.22799
0.226227
0.22417
0.221804
0.219143
0.216158
0.212901
0.209313
0.205674
0.202522
0.200546
0.204211
0.216118
0.236687
0.266663
0.307237
0.358794
0.420931
0.492936
0.574001
0.665962
0.774288
0.905094
1.06814
1.27217
1.50743
1.7502
1.94888
2.04729
2.06728
2.19256
2.42201
2.59673
2.17832
2.01351
1.80689
1.51936
1.24312
1.03985
0.657234
0.408082
0.279261
0.20964
0.168752
0.142595
0.125794
0.115408
0.10946
0.106684
0.106197
0.107497
0.11051
0.115432
0.122527
0.132256
0.144879
0.159345
0.173579
0.185625
0.194969
0.201585
0.205668
0.207346
0.206775
0.204089
0.199493
0.193303
0.185871
0.177425
0.168307
0.159293
0.152178
0.149885
0.152903
0.158726
0.165435
0.172144
0.178497
0.184367
0.18973
0.194611
0.199021
0.202954
0.206415
0.209407
0.211948
0.214071
0.215812
0.217203
0.218275
0.219052
0.219555
0.219802
0.219806
0.219579
0.219127
0.218457
0.217571
0.216471
0.215155
0.213619
0.211861
0.209877
0.207678
0.205269
0.202676
0.199932
0.197137
0.194523
0.19301
0.192695
0.196494
0.207269
0.225666
0.252376
0.288155
0.33301
0.38638
0.447493
0.515648
0.592747
0.683434
0.79263
0.927747
1.09393
1.27982
1.46516
1.61199
1.68582
1.70398
1.78798
1.99278
2.24414
1.84887
1.75665
1.68014
1.61169
1.46749
1.21534
0.759644
0.457035
0.303061
0.222028
0.175255
0.145701
0.126662
0.114667
0.10756
0.103992
0.103025
0.104106
0.107069
0.112016
0.119136
0.128766
0.141019
0.154921
0.168695
0.180548
0.18994
0.19682
0.201333
0.203594
0.203739
0.201894
0.198243
0.193061
0.186655
0.179245
0.171161
0.163124
0.156757
0.154537
0.156881
0.161721
0.167391
0.173083
0.178461
0.1834
0.187873
0.191901
0.195489
0.198641
0.201365
0.203666
0.205565
0.207091
0.208276
0.209152
0.209747
0.210084
0.210183
0.21006
0.20973
0.209203
0.208488
0.207592
0.206519
0.205272
0.203853
0.202261
0.200499
0.198567
0.19649
0.194273
0.191978
0.189637
0.187446
0.185641
0.185303
0.186227
0.190256
0.200223
0.216944
0.241077
0.273094
0.312767
0.359461
0.412402
0.47102
0.537156
0.614774
0.707946
0.822443
0.96139
1.11414
1.26386
1.38188
1.44459
1.46434
1.52237
1.66432
1.86391
1.56941
1.51811
1.50779
1.58649
1.59566
1.37798
0.880436
0.51802
0.3335
0.238424
0.184525
0.150899
0.129246
0.115428
0.107043
0.102619
0.101132
0.101953
0.104831
0.10978
0.116916
0.126476
0.138479
0.152051
0.165579
0.177344
0.186824
0.193947
0.19883
0.201577
0.202312
0.20116
0.19829
0.193948
0.188404
0.181873
0.174673
0.167477
0.161746
0.159562
0.161287
0.165229
0.16995
0.174718
0.179214
0.183316
0.186994
0.190265
0.193129
0.195597
0.197678
0.19938
0.200723
0.201734
0.202442
0.202878
0.203066
0.203028
0.202784
0.202348
0.201736
0.200957
0.20002
0.198933
0.197701
0.196328
0.19482
0.193175
0.191404
0.189508
0.187522
0.185456
0.183392
0.181375
0.179657
0.178497
0.179018
0.180876
0.185178
0.194572
0.209981
0.232042
0.261036
0.296602
0.338073
0.384715
0.4361
0.493982
0.561811
0.643066
0.742389
0.861678
0.991431
1.11736
1.21683
1.27236
1.2929
1.33562
1.4336
1.57032
1.35548
1.32459
1.34248
1.49436
1.63412
1.51106
1.01548
0.593627
0.372224
0.259704
0.197034
0.158447
0.133671
0.117729
0.10788
0.102481
0.10039
0.100884
0.103629
0.108551
0.115694
0.125214
0.137069
0.150486
0.163932
0.175704
0.185317
0.192683
0.1979
0.201067
0.202305
0.201736
0.199524
0.195889
0.191077
0.185297
0.178857
0.172386
0.167194
0.165012
0.166161
0.169271
0.173113
0.177026
0.18071
0.184045
0.186999
0.189582
0.191794
0.193649
0.195155
0.196323
0.197171
0.197725
0.198012
0.198058
0.197888
0.19752
0.196975
0.196265
0.195405
0.194404
0.193272
0.192017
0.190644
0.189158
0.187567
0.185871
0.184084
0.182211
0.180292
0.178345
0.176465
0.174712
0.173372
0.172731
0.173887
0.176452
0.181041
0.190035
0.204407
0.224778
0.251301
0.283537
0.320824
0.362484
0.408228
0.459726
0.520026
0.592184
0.680023
0.784636
0.897577
1.00641
1.09258
1.14241
1.16262
1.19532
1.26497
1.35603
1.19253
1.17182
1.20009
1.37583
1.60414
1.60188
1.15544
0.686191
0.421253
0.286997
0.213408
0.168702
0.140133
0.121654
0.110078
0.103533
0.100722
0.100807
0.10336
0.108224
0.115369
0.12488
0.136678
0.150081
0.163578
0.175445
0.185238
0.192855
0.198387
0.201931
0.203606
0.203538
0.201886
0.198853
0.194666
0.18953
0.183742
0.177896
0.173151
0.170938
0.171545
0.173878
0.176895
0.180007
0.182931
0.185552
0.187834
0.189781
0.191394
0.192685
0.193666
0.194346
0.194744
0.194882
0.194786
0.194479
0.193984
0.193318
0.192499
0.191541
0.190456
0.189254
0.187944
0.186534
0.185031
0.183439
0.181767
0.180019
0.178209
0.176347
0.174476
0.172622
0.170888
0.169352
0.168319
0.168098
0.169721
0.172824
0.177695
0.186419
0.19997
0.218947
0.24342
0.272912
0.306781
0.34442
0.385666
0.432109
0.486479
0.551509
0.630399
0.723669
0.823741
0.919552
0.995401
1.04019
1.05916
1.08465
1.13541
1.19598
1.06558
1.05017
1.08097
1.25451
1.52926
1.64415
1.28733
0.796584
0.483
0.321787
0.234507
0.182179
0.148943
0.127382
0.113725
0.105802
0.102118
0.101688
0.103983
0.108754
0.115894
0.125427
0.13725
0.150757
0.164422
0.176465
0.186484
0.19437
0.200209
0.204098
0.206161
0.206527
0.205354
0.202836
0.199182
0.194596
0.189366
0.184057
0.179672
0.177395
0.177486
0.179085
0.181323
0.183674
0.185879
0.187824
0.189472
0.190821
0.191872
0.192638
0.193128
0.193354
0.193332
0.193084
0.192631
0.191996
0.191198
0.190255
0.189182
0.187992
0.186697
0.185306
0.183828
0.182272
0.180643
0.178948
0.177195
0.17539
0.173551
0.171688
0.169848
0.168065
0.166449
0.165091
0.164309
0.164426
0.166392
0.169898
0.175037
0.183589
0.196489
0.21431
0.237064
0.264266
0.295303
0.329644
0.367241
0.409607
0.459215
0.518534
0.590269
0.674498
0.764324
0.849716
0.917066
0.957107
0.974205
0.994121
1.0317
1.07196
0.963955
0.951501
0.981336
1.14104
1.42934
1.63858
1.3993
0.920213
0.560031
0.365978
0.261488
0.199595
0.160555
0.135199
0.118997
0.109391
0.104631
0.103554
0.105508
0.11014
0.117267
0.12685
0.138773
0.15249
0.166423
0.178717
0.18901
0.197184
0.203328
0.20754
0.209951
0.210697
0.209936
0.207855
0.204654
0.200534
0.195778
0.190919
0.186814
0.184441
0.184035
0.184937
0.186429
0.188052
0.189566
0.190864
0.191905
0.192683
0.1932
0.193466
0.19349
0.193285
0.192865
0.19225
0.191458
0.190511
0.189425
0.188217
0.186901
0.18549
0.183993
0.182421
0.180781
0.179081
0.177328
0.175529
0.173693
0.171827
0.169949
0.168074
0.166251
0.164521
0.162998
0.161787
0.161209
0.161596
0.163808
0.167613
0.172996
0.181448
0.193836
0.210693
0.231997
0.257267
0.285932
0.317535
0.352132
0.391164
0.436887
0.491546
0.557428
0.634246
0.715623
0.792316
0.852315
0.887753
0.90254
0.917954
0.945984
0.972516
0.880506
0.869847
0.897228
1.03892
1.31883
1.59151
1.48064
1.04811
0.654604
0.421929
0.295875
0.22192
0.175607
0.145529
0.126173
0.11448
0.108381
0.106486
0.107992
0.112427
0.119522
0.129181
0.141273
0.155294
0.169586
0.182201
0.192812
0.201295
0.207744
0.212263
0.214989
0.216067
0.215658
0.213946
0.211125
0.207392
0.203036
0.198542
0.19464
0.192136
0.191248
0.191481
0.192255
0.193173
0.194018
0.194687
0.19514
0.195366
0.195366
0.195149
0.194725
0.194103
0.193298
0.192327
0.191208
0.189958
0.188593
0.187127
0.185575
0.183947
0.182253
0.180501
0.1787
0.176857
0.174979
0.173073
0.171149
0.169215
0.167291
0.165394
0.163575
0.161881
0.16043
0.159339
0.158924
0.159525
0.161906
0.165925
0.171524
0.179928
0.191915
0.207968
0.228041
0.251671
0.278332
0.307642
0.339747
0.376022
0.418533
0.469324
0.530315
0.600895
0.675072
0.744223
0.797608
0.828517
0.840729
0.852401
0.873324
0.890465
0.810427
0.800982
0.825363
0.948431
1.20712
1.51252
1.52383
1.16996
0.76488
0.492274
0.339624
0.25044
0.194959
0.158955
0.135652
0.121347
0.113562
0.110624
0.11154
0.1157
0.122734
0.132486
0.14481
0.159223
0.173952
0.186951
0.19792
0.206733
0.213488
0.218297
0.221308
0.222674
0.222562
0.221155
0.218644
0.215228
0.211198
0.206986
0.203214
0.200545
0.199182
0.198769
0.198845
0.199076
0.199266
0.19932
0.199195
0.19888
0.198374
0.197684
0.196819
0.195789
0.194607
0.193286
0.191844
0.190295
0.188654
0.186934
0.185147
0.183303
0.181411
0.17948
0.177516
0.175527
0.173521
0.171503
0.169485
0.167477
0.165497
0.163568
0.16174
0.160068
0.15867
0.157673
0.15739
0.158154
0.160642
0.164808
0.170591
0.178984
0.190657
0.206039
0.225063
0.247292
0.272249
0.299625
0.329644
0.363615
0.403437
0.450966
0.507778
0.572965
0.640813
0.7032
0.750455
0.77689
0.7864
0.794915
0.810448
0.821118
0.750403
0.741879
0.763187
0.868638
1.09981
1.41212
1.52592
1.27438
0.884546
0.579495
0.395156
0.28683
0.219759
0.176276
0.147991
0.130383
0.120456
0.116177
0.116316
0.120093
0.127019
0.136869
0.149479
0.164365
0.179599
0.193035
0.204395
0.213551
0.220611
0.225694
0.228959
0.23057
0.230702
0.229538
0.227269
0.224106
0.220326
0.216315
0.212602
0.209731
0.207896
0.206855
0.20625
0.205804
0.205348
0.204792
0.204095
0.203244
0.202236
0.201078
0.199776
0.19834
0.196781
0.195112
0.193347
0.191499
0.189581
0.187605
0.185581
0.183519
0.181427
0.179312
0.177181
0.175042
0.172901
0.170766
0.168647
0.166556
0.164513
0.162541
0.160692
0.159028
0.157666
0.156743
0.15656
0.157444
0.15999
0.164247
0.17018
0.178583
0.190012
0.204832
0.222959
0.243987
0.267487
0.293221
0.32148
0.35351
0.391052
0.435776
0.488936
0.549331
0.611445
0.667589
0.70904
0.731071
0.737865
0.743704
0.755101
0.76131
0.698086
0.690339
0.708738
0.798279
0.999864
1.30007
1.48881
1.35048
1.00525
0.682244
0.46516
0.333219
0.251517
0.198559
0.16395
0.14213
0.129457
0.123442
0.122552
0.125795
0.132539
0.142478
0.155417
0.170847
0.186637
0.20055
0.212325
0.221831
0.229187
0.234522
0.238007
0.239818
0.240139
0.239156
0.237066
0.234088
0.230483
0.226593
0.222868
0.219759
0.217451
0.215792
0.214517
0.213402
0.212303
0.211139
0.209871
0.208483
0.206972
0.205343
0.203603
0.201759
0.199821
0.197801
0.195709
0.193558
0.191359
0.189122
0.186856
0.184571
0.182272
0.179968
0.177664
0.175368
0.173086
0.170826
0.168599
0.166416
0.1643
0.162275
0.160394
0.158725
0.157385
0.156513
0.156404
0.157369
0.159933
0.164234
0.170284
0.178706
0.189943
0.204291
0.221648
0.24164
0.263887
0.28822
0.314983
0.345359
0.380937
0.4232
0.473083
0.529098
0.585871
0.636117
0.672001
0.689736
0.693891
0.697464
0.705672
0.70883
0.651774
0.644731
0.660498
0.736076
0.908626
1.18437
1.41855
1.38998
1.11611
0.795549
0.551393
0.39216
0.292173
0.227219
0.184553
0.157331
0.141112
0.13283
0.130572
0.133071
0.139519
0.14951
0.162805
0.178831
0.195216
0.209628
0.221822
0.231672
0.239305
0.244862
0.248526
0.250487
0.250938
0.250073
0.248101
0.245237
0.241727
0.237879
0.234075
0.23069
0.227902
0.225632
0.223694
0.221914
0.220172
0.218397
0.216553
0.214624
0.212605
0.2105
0.208316
0.206058
0.203734
0.201355
0.19893
0.196468
0.193981
0.191475
0.188961
0.186444
0.183932
0.181431
0.178946
0.176485
0.174054
0.17166
0.169316
0.167033
0.164834
0.162746
0.160823
0.159136
0.157803
0.156965
0.156904
0.157917
0.160464
0.16477
0.170902
0.179343
0.190425
0.20437
0.221063
0.240156
0.261321
0.284449
0.309929
0.338874
0.372727
0.412773
0.45963
0.51153
0.563208
0.607786
0.638299
0.651894
0.653561
0.655228
0.66098
0.662085
0.610205
0.603827
0.617284
0.680848
0.826433
1.071
1.32379
1.38894
1.2051
0.911934
0.651626
0.466304
0.34414
0.264094
0.211166
0.176992
0.156167
0.144906
0.140815
0.142279
0.148262
0.158231
0.171886
0.188535
0.205527
0.220432
0.233028
0.243194
0.251067
0.256802
0.260593
0.262645
0.263162
0.262352
0.260429
0.257605
0.254113
0.250228
0.246277
0.242575
0.239297
0.23642
0.233823
0.231378
0.228989
0.226597
0.22417
0.221692
0.219156
0.216567
0.213929
0.211248
0.20853
0.205782
0.203013
0.200232
0.197446
0.194663
0.19189
0.189133
0.186398
0.183691
0.181016
0.178381
0.175792
0.173256
0.170785
0.168392
0.166101
0.163941
0.161965
0.160248
0.158908
0.158086
0.15805
0.159081
0.161582
0.16586
0.172039
0.180489
0.191439
0.205036
0.221148
0.239456
0.259677
0.281759
0.306121
0.333805
0.366103
0.404092
0.448069
0.495998
0.542721
0.581792
0.607125
0.616794
0.616185
0.616261
0.620133
0.619903
0.572427
0.566688
0.578158
0.631539
0.753023
0.963989
1.21405
1.34863
1.26134
1.02064
0.761435
0.555284
0.410083
0.311501
0.245582
0.202461
0.175636
0.160443
0.153885
0.153904
0.159172
0.168988
0.182977
0.200234
0.217804
0.23316
0.246104
0.256531
0.264582
0.270432
0.274283
0.276354
0.276867
0.276042
0.274094
0.271233
0.267677
0.263677
0.259512
0.255454
0.251671
0.248186
0.244931
0.241819
0.238779
0.235763
0.232743
0.229705
0.226642
0.223558
0.220456
0.217339
0.214214
0.211087
0.207964
0.204851
0.201756
0.198684
0.195642
0.192634
0.189666
0.186742
0.183868
0.181049
0.178292
0.175604
0.172998
0.170487
0.168094
0.165851
0.163813
0.162056
0.160695
0.159872
0.159839
0.16086
0.163293
0.167513
0.173704
0.182146
0.192972
0.206259
0.221856
0.239467
0.258854
0.280015
0.303383
0.329923
0.360772
0.396785
0.43794
0.481953
0.52379
0.557486
0.577853
0.583865
0.581233
0.579998
0.582451
0.581398
0.537709
0.532585
0.542376
0.58722
0.687784
0.865732
1.09823
1.27507
1.27755
1.10897
0.872723
0.656462
0.490677
0.372081
0.290084
0.235515
0.200883
0.180484
0.170599
0.168602
0.172791
0.18224
0.196476
0.214278
0.232338
0.248046
0.261234
0.271825
0.279959
0.285834
0.289651
0.291658
0.29209
0.291173
0.289119
0.286137
0.282436
0.278241
0.273798
0.269343
0.265038
0.260941
0.257028
0.253247
0.24955
0.245901
0.242279
0.23867
0.235068
0.231476
0.227897
0.224333
0.220789
0.217269
0.213779
0.210323
0.206907
0.203535
0.200212
0.196942
0.19373
0.19058
0.187496
0.184483
0.181549
0.1787
0.175949
0.173311
0.170808
0.168474
0.166364
0.164555
0.163161
0.162321
0.162272
0.163258
0.165601
0.169739
0.175906
0.184314
0.195013
0.208012
0.223139
0.240121
0.258757
0.279085
0.301544
0.327009
0.356455
0.390503
0.428819
0.468901
0.505883
0.534338
0.549994
0.552672
0.548302
0.546018
0.547408
0.545892
0.505485
0.500952
0.50934
0.547086
0.629911
0.777338
0.983582
1.17754
1.25204
1.16485
0.973851
0.763975
0.584384
0.44685
0.347313
0.278425
0.233709
0.206433
0.192056
0.187249
0.189835
0.198584
0.212883
0.231096
0.249469
0.265356
0.278616
0.289221
0.297296
0.303054
0.306732
0.30858
0.308839
0.307737
0.305489
0.302299
0.298367
0.2939
0.289114
0.28422
0.279377
0.274663
0.27009
0.265639
0.261281
0.256992
0.252758
0.248568
0.244416
0.240305
0.236237
0.232214
0.228239
0.224315
0.220446
0.216634
0.212885
0.209202
0.205587
0.202045
0.198579
0.195192
0.191889
0.188674
0.185553
0.182535
0.179632
0.176858
0.174238
0.171804
0.169614
0.167744
0.166305
0.165433
0.165348
0.166279
0.168514
0.172545
0.178654
0.186998
0.197553
0.210268
0.224952
0.241347
0.259287
0.278839
0.30043
0.324842
0.352873
0.384905
0.420304
0.456398
0.488546
0.511924
0.523173
0.522886
0.517078
0.514006
0.514587
0.512859
0.475311
0.471341
0.478571
0.510445
0.57851
0.698965
0.875323
1.0665
1.1891
1.17988
1.05135
0.867844
0.686761
0.534944
0.418225
0.333797
0.276411
0.240132
0.219719
0.211012
0.211252
0.218798
0.232845
0.25121
0.269592
0.28538
0.298448
0.308812
0.316635
0.322126
0.325529
0.327094
0.327066
0.325674
0.323132
0.319641
0.315392
0.310576
0.305388
0.300017
0.294617
0.289282
0.284051
0.278931
0.27391
0.268978
0.264127
0.259349
0.254639
0.250001
0.245435
0.240943
0.236527
0.232188
0.22793
0.223753
0.219662
0.215657
0.211742
0.207919
0.20419
0.200559
0.197028
0.193602
0.190289
0.187094
0.184031
0.181115
0.178371
0.175833
0.173555
0.171615
0.170122
0.169204
0.169067
0.169923
0.172035
0.175937
0.181951
0.190192
0.200575
0.212995
0.227241
0.24307
0.260339
0.279136
0.299861
0.32319
0.34974
0.37965
0.41201
0.44404
0.471394
0.489909
0.497112
0.494262
0.487318
0.483674
0.483654
0.481884
0.446838
0.443398
0.449679
0.47671
0.532676
0.630122
0.776627
0.951686
1.09791
1.15188
1.093
0.954822
0.789109
0.632674
0.502409
0.402539
0.331204
0.283868
0.255472
0.241402
0.238266
0.243878
0.257164
0.275233
0.293132
0.308331
0.320848
0.330688
0.338013
0.343028
0.345975
0.347101
0.346648
0.344844
0.341899
0.338009
0.333357
0.328119
0.322473
0.31659
0.310618
0.304662
0.298779
0.292996
0.287319
0.281747
0.27628
0.270913
0.265643
0.260474
0.255406
0.250441
0.245579
0.24082
0.236167
0.231619
0.227179
0.222848
0.218626
0.214516
0.210519
0.206637
0.202874
0.199234
0.195722
0.192347
0.18912
0.186059
0.183188
0.180539
0.178169
0.176154
0.174596
0.173621
0.173418
0.174182
0.176157
0.179911
0.185793
0.193887
0.204057
0.216152
0.229945
0.2452
0.261793
0.279818
0.299637
0.321808
0.346762
0.374399
0.403572
0.431471
0.454114
0.468039
0.471609
0.466617
0.458828
0.454794
0.454339
0.452638
0.41979
0.416846
0.422355
0.445392
0.491544
0.569911
0.688932
0.84073
0.990077
1.08574
1.09149
1.01104
0.878731
0.732037
0.596395
0.484238
0.399095
0.339406
0.301322
0.280276
0.272405
0.275061
0.286735
0.303672
0.320406
0.334474
0.345962
0.354881
0.361374
0.365635
0.367894
0.368386
0.367344
0.364989
0.361524
0.357135
0.351995
0.346268
0.340116
0.333695
0.327145
0.320575
0.314054
0.307625
0.301307
0.29511
0.289038
0.283092
0.27727
0.271576
0.266011
0.260576
0.25527
0.250094
0.245047
0.240129
0.235341
0.230682
0.226154
0.221757
0.217491
0.213359
0.209363
0.205507
0.201798
0.198242
0.194852
0.191645
0.188645
0.185887
0.183423
0.181329
0.179701
0.17866
0.178378
0.179037
0.180864
0.184449
0.190161
0.198056
0.20796
0.219683
0.232984
0.24763
0.26351
0.28071
0.299538
0.32043
0.343629
0.368813
0.394651
0.418381
0.43646
0.446135
0.446528
0.439817
0.431456
0.427181
0.426422
0.424859
0.39395
0.391464
0.396345
0.416086
0.454331
0.517233
0.612368
0.738681
0.876967
0.991972
1.04708
1.02599
0.941122
0.820648
0.69229
0.575203
0.479299
0.407567
0.358738
0.329216
0.315142
0.31355
0.322378
0.337115
0.351773
0.363965
0.373795
0.381271
0.386501
0.389658
0.390942
0.390567
0.388748
0.38569
0.38158
0.376594
0.37089
0.364619
0.357926
0.350953
0.343832
0.336668
0.329539
0.322495
0.315568
0.308775
0.302126
0.295626
0.289274
0.283076
0.277032
0.271144
0.265409
0.259828
0.254399
0.249122
0.243996
0.239019
0.234192
0.229515
0.224988
0.220613
0.216391
0.212326
0.208424
0.204694
0.201146
0.197798
0.194676
0.191811
0.189257
0.187084
0.185384
0.18427
0.183902
0.184446
0.186117
0.189514
0.195016
0.202655
0.212226
0.22351
0.236256
0.25023
0.265324
0.281606
0.299319
0.318772
0.340027
0.362567
0.384941
0.404522
0.418255
0.424087
0.421785
0.413767
0.405079
0.400687
0.399723
0.398337
0.369145
0.367078
0.371452
0.388462
0.420353
0.47093
0.546185
0.648107
0.767627
0.883633
0.967738
0.9964
0.964044
0.883693
0.7776
0.667118
0.567432
0.486789
0.427794
0.389035
0.367474
0.360222
0.364708
0.375884
0.387315
0.39669
0.404079
0.409471
0.412919
0.414552
0.414526
0.413022
0.41022
0.4063
0.401427
0.395755
0.389426
0.382574
0.375327
0.367812
0.360145
0.352429
0.344742
0.337138
0.329657
0.32232
0.315145
0.308137
0.301298
0.294635
0.28815
0.281842
0.275711
0.269754
0.263971
0.258359
0.252918
0.247645
0.242541
0.237603
0.232833
0.228231
0.2238
0.219541
0.215463
0.211571
0.207879
0.204404
0.201169
0.198209
0.195573
0.193327
0.191558
0.190372
0.189913
0.190338
0.191847
0.195038
0.200289
0.207605
0.216764
0.227526
0.239628
0.252837
0.267038
0.282271
0.298708
0.316532
0.335638
0.355356
0.374182
0.389705
0.399393
0.40184
0.397338
0.388399
0.379597
0.375188
0.374096
0.372904
0.34524
0.343553
0.347514
0.362253
0.389032
0.429901
0.489147
0.569616
0.667888
0.772926
0.866629
0.927886
0.942122
0.908107
0.837204
0.746944
0.654222
0.571474
0.50564
0.458572
0.429077
0.414947
0.413577
0.419633
0.426508
0.43199
0.436056
0.438646
0.439736
0.439388
0.437699
0.434792
0.430805
0.425875
0.420137
0.413717
0.406732
0.399294
0.391513
0.383494
0.375342
0.367146
0.358981
0.350903
0.342952
0.335156
0.327533
0.320093
0.31284
0.30578
0.298916
0.292247
0.285773
0.279492
0.273402
0.267501
0.261787
0.256258
0.250912
0.24575
0.24077
0.235972
0.23136
0.226937
0.222707
0.21868
0.214868
0.211287
0.207963
0.204926
0.202225
0.19992
0.198091
0.196838
0.196293
0.196598
0.197944
0.200913
0.205872
0.212789
0.221444
0.23158
0.242927
0.255247
0.268417
0.28244
0.297414
0.313402
0.33016
0.346909
0.362173
0.373814
0.379832
0.379394
0.373177
0.363667
0.354931
0.350584
0.349422
0.348428
0.322128
0.320784
0.324406
0.337246
0.359895
0.393162
0.439827
0.502501
0.580483
0.668836
0.757887
0.833133
0.879533
0.887688
0.857838
0.799254
0.725755
0.650909
0.584891
0.533074
0.496931
0.475658
0.467254
0.466706
0.467738
0.468281
0.468171
0.467269
0.465452
0.462696
0.459019
0.454474
0.449137
0.443094
0.436435
0.42925
0.421625
0.413646
0.405396
0.396962
0.388426
0.379866
0.371346
0.36292
0.354627
0.346495
0.338545
0.330786
0.323226
0.31587
0.308723
0.301784
0.295052
0.288526
0.282204
0.276084
0.270163
0.264439
0.258912
0.253579
0.248441
0.243498
0.238752
0.234207
0.22987
0.225747
0.221852
0.218201
0.214818
0.211736
0.208996
0.206655
0.204786
0.203481
0.202859
0.203053
0.204241
0.206974
0.211591
0.218035
0.226083
0.235473
0.245931
0.257216
0.269189
0.281818
0.295127
0.309077
0.323314
0.33701
0.348777
0.356802
0.359588
0.356781
0.349311
0.339535
0.331012
0.326791
0.325604
0.324801
0.299727
0.29869
0.302031
0.313271
0.332559
0.359878
0.396818
0.44534
0.505784
0.576399
0.652946
0.727381
0.788766
0.82637
0.833645
0.811252
0.766503
0.710211
0.653084
0.602904
0.563829
0.536929
0.521351
0.513324
0.507668
0.502569
0.497702
0.492833
0.487737
0.482294
0.47643
0.470118
0.463364
0.456192
0.44864
0.440752
0.432578
0.42417
0.415586
0.406884
0.398127
0.389374
0.380678
0.372083
0.363625
0.355331
0.347219
0.339302
0.331587
0.324081
0.316787
0.309706
0.302838
0.296182
0.289736
0.283498
0.277466
0.271638
0.266013
0.260591
0.25537
0.250354
0.245542
0.240941
0.236555
0.232394
0.22847
0.2248
0.221408
0.218323
0.215585
0.213242
0.211362
0.21003
0.209354
0.209453
0.210495
0.212983
0.217211
0.2231
0.230431
0.238944
0.248363
0.258447
0.269044
0.280086
0.291534
0.303269
0.314866
0.3255
0.333932
0.338689
0.338728
0.334065
0.325761
0.315979
0.307786
0.303739
0.302563
0.301939
0.277973
0.277207
0.28031
0.290193
0.306722
0.329367
0.358858
0.396453
0.442699
0.497257
0.558782
0.623692
0.685806
0.737097
0.769589
0.778692
0.765138
0.734469
0.694823
0.654067
0.617911
0.589113
0.567983
0.552913
0.540733
0.530069
0.520477
0.511652
0.503292
0.495189
0.487192
0.479195
0.471132
0.462965
0.454676
0.446262
0.437732
0.429104
0.420402
0.411661
0.402917
0.394209
0.385577
0.377053
0.368665
0.360437
0.352386
0.344524
0.336856
0.329392
0.322135
0.315086
0.308245
0.301614
0.29519
0.288972
0.282959
0.27715
0.271545
0.266142
0.260944
0.255952
0.251168
0.246597
0.242247
0.238126
0.234248
0.230628
0.22729
0.224262
0.221581
0.219285
0.217439
0.216118
0.21542
0.215454
0.216372
0.21861
0.222405
0.227658
0.23416
0.241658
0.249882
0.258594
0.267637
0.276911
0.286332
0.295725
0.304638
0.312297
0.317648
0.319551
0.317351
0.31132
0.302556
0.292979
0.285205
0.281372
0.280235
0.279774
0.256813
0.256287
0.259184
0.267907
0.282149
0.301089
0.324883
0.354203
0.389456
0.430788
0.47812
0.530308
0.584613
0.636496
0.679815
0.708851
0.720514
0.715372
0.697346
0.672074
0.644913
0.619369
0.596233
0.576381
0.55933
0.544356
0.531012
0.518994
0.507983
0.497733
0.488041
0.47875
0.469739
0.460918
0.452222
0.443604
0.435036
0.426501
0.417995
0.409525
0.401103
0.392749
0.384485
0.376331
0.368307
0.360431
0.352716
0.345172
0.337806
0.330625
0.323634
0.316836
0.31023
0.30382
0.297604
0.291582
0.285755
0.280123
0.274687
0.269446
0.264404
0.259563
0.254927
0.250501
0.246294
0.242315
0.238577
0.235097
0.231897
0.229004
0.226449
0.224266
0.222512
0.221255
0.220585
0.220595
0.221422
0.223416
0.226741
0.231281
0.236847
0.243199
0.25008
0.257265
0.264595
0.271958
0.27924