/*--------------------------------*- C++ -*----------------------------------*\
| =========                 |                                                 |
| \\      /  F ield         | OpenFOAM: The Open Source CFD Toolbox           |
|  \\    /   O peration     | Version:  v2106                                 |
|   \\  /    A nd           | Website:  www.openfoam.com                      |
|    \\/     M anipulation  |                                                 |
\*---------------------------------------------------------------------------*/
FoamFile
{
    version     2.0;
    format      ascii;
    arch        "LSB;label=32;scalar=64";
    class       volScalarField;
    location    "0";
    object      expGpCoeffs20;
}
// * * * * * * * * * * * * * * * * * * * * * * * * * * * * * * * * * * * * * //

dimensions      [0 0 0 0 0 0 0];

internalField   nonuniform List<scalar> 
8000
(
0.000141324
0.000130326
0.000107418
7.13206e-05
8.79338e-05
0.00018158
0.00048912
0.00100947
0.00179971
0.00285456
0.00409733
0.00551747
0.00697216
0.00844686
0.00979957
0.0110328
0.0120903
0.012983
0.0137932
0.0145257
0.0153512
0.0162689
0.0173858
0.0186958
0.0201422
0.0217239
0.023345
0.0250003
0.0266515
0.0282959
0.0299111
0.0314946
0.033025
0.0345002
0.0359013
0.0372265
0.0384607
0.0396022
0.0406401
0.0415734
0.0423951
0.0431048
0.0436997
0.0441794
0.0445447
0.0447957
0.0449358
0.0449654
0.0448897
0.0447092
0.0444304
0.0440538
0.0435861
0.0430281
0.0423862
0.0416612
0.0408593
0.0399813
0.0390332
0.0380159
0.0369357
0.0357937
0.0345971
0.0333471
0.0320527
0.0307151
0.0293452
0.0279445
0.0265261
0.0250914
0.0236549
0.0222184
0.0207969
0.019392
0.0180336
0.0167256
0.0155504
0.0145082
0.0136433
0.0129595
0.0123476
0.0118074
0.0111754
0.0104477
0.00955858
0.00849974
0.00734168
0.00608393
0.00485853
0.00367771
0.00264614
0.00177065
0.00109188
0.000610926
0.000287544
0.000123187
3.37305e-05
9.97562e-06
8.89944e-07
8.22949e-07
0.00014221
0.000131214
0.000108556
7.2475e-05
7.64443e-05
0.000169783
0.00046616
0.000985968
0.00177872
0.00283334
0.00408704
0.00550736
0.00697565
0.00845089
0.00981319
0.011047
0.0121025
0.0129955
0.0137931
0.0145256
0.015336
0.0162535
0.0173693
0.0186791
0.0201369
0.0217184
0.0233445
0.0249997
0.026653
0.0282973
0.0299146
0.0314979
0.0330303
0.0345053
0.0359082
0.0372333
0.0384687
0.0396101
0.040649
0.0415821
0.0424044
0.043114
0.043709
0.0441887
0.0445539
0.0448048
0.0449446
0.0449741
0.0448978
0.0447174
0.044438
0.0440614
0.0435931
0.0430351
0.0423926
0.0416677
0.0408651
0.0399872
0.0390385
0.0380213
0.0369404
0.0357985
0.034601
0.0333512
0.0320557
0.0307182
0.0293471
0.0279466
0.0265267
0.0250922
0.0236542
0.0222179
0.0207948
0.0193901
0.0180276
0.0167198
0.0155347
0.0144927
0.0136298
0.0129461
0.0123492
0.0118089
0.0111886
0.0104605
0.00957153
0.00851214
0.00734373
0.00608556
0.00484883
0.0036679
0.00262966
0.00175432
0.00107522
0.000594601
0.000277888
0.000113759
3.18096e-05
8.08075e-06
8.84535e-07
8.17554e-07
0.000143166
0.000132173
0.000109785
7.37216e-05
6.40374e-05
0.000157044
0.000441366
0.000960585
0.00175605
0.00281042
0.00407593
0.00549646
0.00697943
0.00845523
0.00982789
0.0110624
0.0121155
0.013009
0.013793
0.0145255
0.0153196
0.0162369
0.0173514
0.0186611
0.0201312
0.0217125
0.023344
0.0249989
0.0266547
0.0282987
0.0299185
0.0315015
0.0330361
0.0345109
0.0359156
0.0372405
0.0384774
0.0396187
0.0406586
0.0415915
0.0424144
0.0431239
0.0437191
0.0441987
0.0445637
0.0448147
0.044954
0.0449835
0.0449067
0.0447263
0.0444462
0.0440697
0.0436006
0.0430427
0.0423995
0.0416747
0.0408714
0.0399936
0.0390442
0.0380271
0.0369454
0.0358036
0.0346053
0.0333556
0.032059
0.0307217
0.0293492
0.0279489
0.0265274
0.0250931
0.0236535
0.0222173
0.0207926
0.0193881
0.0180212
0.0167135
0.0155178
0.0144759
0.0136151
0.0129317
0.0123509
0.0118106
0.0112028
0.0104743
0.00958551
0.00852553
0.00734594
0.00608733
0.00483837
0.0036573
0.00261186
0.00173669
0.00105722
0.000576971
0.000267461
0.000103579
2.97353e-05
6.03459e-06
8.78694e-07
8.11729e-07
0.000144199
0.000133208
0.000111113
7.50678e-05
5.064e-05
0.000143288
0.000414593
0.000933176
0.00173157
0.00278567
0.00406394
0.00548468
0.0069835
0.00845992
0.00984377
0.011079
0.0121297
0.0130235
0.0137929
0.0145254
0.0153019
0.0162189
0.0173322
0.0186417
0.0201251
0.0217062
0.0233434
0.0249981
0.0266565
0.0283003
0.0299226
0.0315055
0.0330424
0.034517
0.0359237
0.0372484
0.0384869
0.0396279
0.0406689
0.0416017
0.0424253
0.0431347
0.04373
0.0442096
0.0445744
0.0448253
0.0449642
0.0449937
0.0449163
0.0447359
0.044455
0.0440786
0.0436088
0.043051
0.042407
0.0416823
0.0408783
0.0400006
0.0390503
0.0380334
0.0369508
0.0358092
0.0346098
0.0333603
0.0320625
0.0307254
0.0293514
0.0279513
0.0265282
0.0250941
0.0236527
0.0222167
0.0207902
0.019386
0.0180143
0.0167068
0.0154995
0.0144578
0.0135993
0.012916
0.0123527
0.0118125
0.0112181
0.0104892
0.0096006
0.00853999
0.00734832
0.00608923
0.00482706
0.00364586
0.00259264
0.00171766
0.00103779
0.000557934
0.000256202
9.25853e-05
2.74954e-05
3.82507e-06
8.72387e-07
8.05438e-07
0.000145314
0.000134326
0.000112546
7.75338e-05
3.61729e-05
0.000128433
0.000385683
0.000903579
0.00170514
0.00275894
0.00405098
0.00547196
0.00698791
0.00846498
0.00986091
0.0110969
0.012145
0.0130392
0.0137928
0.0145252
0.0152827
0.0161995
0.0173115
0.0186207
0.0201185
0.0216993
0.0233428
0.0249973
0.0266585
0.028302
0.0299271
0.0315097
0.0330492
0.0345235
0.0359324
0.0372569
0.038497
0.0396379
0.04068
0.0416128
0.0424369
0.0431462
0.0437418
0.0442212
0.0445859
0.0448368
0.0449752
0.0450047
0.0449266
0.0447462
0.0444646
0.0440882
0.0436176
0.0430599
0.042415
0.0416904
0.0408856
0.0400081
0.039057
0.0380402
0.0369567
0.0358153
0.0346147
0.0333655
0.0320662
0.0307293
0.0293538
0.0279539
0.026529
0.0250951
0.0236518
0.0222161
0.0207877
0.0193836
0.0180068
0.0166995
0.0154798
0.0144382
0.0135822
0.0128992
0.0123547
0.0118144
0.0112347
0.0105054
0.00961691
0.0085556
0.0073509
0.00609129
0.00481486
0.0036335
0.00257188
0.0016971
0.00101681
0.000537378
0.000244044
8.07142e-05
2.53901e-05
1.43913e-06
8.65576e-07
7.98645e-07
0.000149294
0.000138782
0.000121585
8.64432e-05
2.9673e-05
0.00012148
0.000357704
0.000873288
0.00167664
0.00272889
0.00403561
0.00545401
0.00698889
0.00846371
0.00987815
0.0111153
0.0121614
0.0130562
0.0137927
0.0145251
0.0152621
0.0161786
0.017289
0.018598
0.0201255
0.0217084
0.023358
0.0250144
0.0266784
0.028324
0.0299517
0.0315363
0.0330782
0.0345545
0.0359654
0.0372917
0.0385334
0.039676
0.0407192
0.0416534
0.0424781
0.0431887
0.0437844
0.0442649
0.0446293
0.044881
0.0450189
0.0450489
0.0449702
0.0447899
0.0445075
0.0441312
0.0436598
0.0431017
0.0424562
0.0417309
0.0409254
0.040047
0.0390951
0.0380771
0.0369927
0.03585
0.0346484
0.0333975
0.032097
0.0307582
0.0293812
0.0279793
0.0265527
0.0251166
0.0236714
0.0222335
0.0208032
0.0193969
0.0180151
0.0167056
0.0154584
0.0144171
0.0135638
0.0128809
0.0123569
0.0118165
0.0112526
0.0105228
0.00963367
0.00857135
0.00734813
0.00609049
0.00479839
0.0036191
0.00254843
0.00167488
0.000993876
0.000516739
0.000234133
7.25048e-05
2.50525e-05
2.44844e-06
1.46825e-06
1.36693e-06
0.000159507
0.000150156
0.000133023
9.60641e-05
3.94911e-05
0.000117919
0.000354163
0.000845203
0.00164813
0.00267599
0.00398183
0.00538973
0.00692358
0.00841035
0.00982402
0.0110949
0.0121425
0.0130806
0.0138159
0.0145835
0.0153202
0.0162619
0.0173838
0.0187191
0.0202641
0.0218711
0.0235204
0.0252006
0.0268642
0.0285335
0.0301609
0.0317688
0.0333104
0.0348089
0.0362196
0.0375665
0.038808
0.0399692
0.0410123
0.0419627
0.0427873
0.0435116
0.0441072
0.0445986
0.044963
0.0452226
0.0453605
0.0453956
0.0453168
0.0451387
0.0448563
0.044479
0.0440077
0.0434456
0.0428002
0.0420679
0.0412624
0.0403739
0.0394222
0.0383912
0.0373069
0.0361482
0.0349468
0.0336771
0.0323769
0.0310168
0.02964
0.0282149
0.0267885
0.0253277
0.0238828
0.0224193
0.0209893
0.0195574
0.0181759
0.0168405
0.0155763
0.0145081
0.013644
0.0129363
0.0124127
0.0118386
0.0112758
0.0105064
0.0096159
0.00852538
0.00730279
0.00603694
0.00474568
0.00357527
0.00250531
0.00164896
0.000968367
0.000507293
0.000224825
7.21414e-05
2.46879e-05
4.34127e-06
3.35115e-06
3.20787e-06
0.000170535
0.000162438
0.000145374
0.000106453
5.00931e-05
0.000114074
0.000350339
0.000814875
0.00161736
0.00261886
0.00392376
0.00532033
0.00685306
0.00835273
0.00976558
0.0110728
0.0121202
0.0131078
0.0138435
0.0146606
0.0153981
0.0163806
0.0175028
0.0188691
0.0204139
0.0220469
0.0236958
0.0254015
0.0270648
0.0287598
0.0303869
0.0320199
0.0335612
0.0350836
0.036494
0.0378633
0.0391045
0.0402859
0.0413287
0.0422968
0.0431212
0.0438603
0.0444558
0.0449589
0.0453232
0.0455915
0.0457294
0.0457699
0.0456912
0.0455152
0.0452329
0.0448546
0.0443833
0.0438169
0.0431716
0.0424317
0.0416264
0.040727
0.0397755
0.0387302
0.0376462
0.0364701
0.035269
0.033979
0.0326791
0.0312961
0.0299196
0.0284693
0.0270433
0.0255557
0.0241111
0.02262
0.0211903
0.0197307
0.0183494
0.0169862
0.0157223
0.0146223
0.0137579
0.0130102
0.0124859
0.0118648
0.0113015
0.0104871
0.00959671
0.00847573
0.00725383
0.00597912
0.00468875
0.00352794
0.00245875
0.00162097
0.000940821
0.000497094
0.000214775
7.17489e-05
2.42941e-05
6.38522e-06
5.38437e-06
5.1958e-06
0.000182443
0.000175701
0.000158711
0.000117671
6.15416e-05
0.000109921
0.000346209
0.000782126
0.00158412
0.00255717
0.00386105
0.00524538
0.00677691
0.00829051
0.00970247
0.011049
0.0120962
0.0131371
0.0138734
0.0147438
0.0154821
0.0165088
0.0176313
0.0190311
0.0205755
0.0222367
0.0238853
0.0256185
0.0272815
0.0290041
0.0306309
0.032291
0.033832
0.0353803
0.0367904
0.0381837
0.0394247
0.0406278
0.0416704
0.0426575
0.0434818
0.0442368
0.0448322
0.045348
0.0457122
0.0459899
0.0461277
0.0461741
0.0460954
0.0459219
0.0456396
0.0452601
0.044789
0.0442179
0.0435727
0.0428246
0.0420195
0.0411083
0.040157
0.0390964
0.0380126
0.0368178
0.0356169
0.0343051
0.0330054
0.0315977
0.0302215
0.0287441
0.0273183
0.0258019
0.0243576
0.0228367
0.0214073
0.0199178
0.0185369
0.0171435
0.0158799
0.0147456
0.0138809
0.01309
0.0125649
0.011893
0.0113291
0.0104662
0.00957599
0.00842212
0.00720096
0.00591669
0.00462728
0.00347684
0.00240847
0.00159075
0.000911076
0.00048608
0.000203922
7.13251e-05
2.3869e-05
8.59236e-06
7.57994e-06
7.34244e-06
0.000195302
0.000190023
0.000173113
0.000129786
7.39041e-05
0.000105437
0.00034175
0.000746762
0.00154824
0.00249055
0.00379333
0.00516444
0.00669468
0.00822332
0.00963433
0.0110233
0.0120703
0.0131688
0.0139057
0.0148337
0.0155729
0.0166472
0.01777
0.0192061
0.0207501
0.0224416
0.0240898
0.0258529
0.0275154
0.029268
0.0308944
0.0325838
0.0341244
0.0357007
0.0371104
0.0385298
0.0397705
0.040997
0.0420394
0.043047
0.0438711
0.0446434
0.0452386
0.0457682
0.0461323
0.0464201
0.0465579
0.0466106
0.0465319
0.046361
0.0460788
0.0456981
0.045227
0.0446509
0.0440059
0.0432488
0.0424439
0.04152
0.0405689
0.0394918
0.0384083
0.0371933
0.0359927
0.0346571
0.0333578
0.0319233
0.0305474
0.0290407
0.0276153
0.0260677
0.0246238
0.0230707
0.0216416
0.0201199
0.0187393
0.0173134
0.0160501
0.0148788
0.0140137
0.0131762
0.0126502
0.0119234
0.011359
0.0104437
0.00955361
0.00836422
0.00714387
0.00584926
0.00456091
0.00342165
0.00235417
0.00155812
0.000878956
0.000474187
0.000192202
7.08675e-05
2.34099e-05
1.09757e-05
9.95079e-06
9.66047e-06
0.000209188
0.000205488
0.000188664
0.000142867
8.72537e-05
0.000100595
0.000336935
0.000708574
0.00150948
0.00241861
0.00372021
0.00507705
0.00660588
0.00815076
0.00956074
0.0109955
0.0120424
0.0132029
0.0139406
0.0149308
0.0156709
0.0167967
0.0179198
0.019395
0.0209387
0.0226629
0.0243107
0.0261059
0.0277681
0.0295529
0.0311789
0.0328999
0.0344401
0.0360467
0.037456
0.0389034
0.0401438
0.0413958
0.0424379
0.0434676
0.0442915
0.0450824
0.0456775
0.0462219
0.046586
0.0468846
0.0470223
0.047082
0.0470033
0.0468351
0.046553
0.046171
0.0457
0.0451185
0.0444736
0.0437069
0.0429022
0.0419645
0.0410137
0.0399187
0.0388355
0.0375987
0.0363984
0.0350373
0.0337383
0.0322749
0.0308994
0.0293611
0.027936
0.0263548
0.0249112
0.0233234
0.0218947
0.0203381
0.0189578
0.0174969
0.0162338
0.0150226
0.0141571
0.0132692
0.0127423
0.0119563
0.0113913
0.0104193
0.00952945
0.00830171
0.00708223
0.00577646
0.00448923
0.00336206
0.00229554
0.00152288
0.000844272
0.000461344
0.000179547
7.03733e-05
2.29142e-05
1.35494e-05
1.25109e-05
1.21636e-05
0.000224183
0.000222188
0.000205458
0.000156993
0.000101669
9.53658e-05
0.000331736
0.000667338
0.00146764
0.00234094
0.00364125
0.00498267
0.00650999
0.00807242
0.00948127
0.0109655
0.0120122
0.0132399
0.0139782
0.0150356
0.0157768
0.0169581
0.0180816
0.019599
0.0211422
0.0229019
0.0245492
0.0263792
0.0280408
0.0298606
0.0314861
0.0332413
0.0347811
0.0364202
0.0378292
0.0393069
0.040547
0.0418263
0.0428681
0.0439218
0.0447455
0.0455565
0.0461514
0.0467118
0.0470758
0.0473862
0.0475239
0.0475909
0.0475123
0.0473471
0.0470651
0.0466816
0.0462108
0.0456234
0.0449787
0.0442016
0.0433972
0.0424446
0.041494
0.0403798
0.0392968
0.0380365
0.0368365
0.0354478
0.0341492
0.0326546
0.0312795
0.029707
0.0282823
0.0266648
0.0252216
0.0235962
0.0221679
0.0205737
0.0191939
0.017695
0.0164323
0.0151778
0.014312
0.0133697
0.0128417
0.0119918
0.0114261
0.010393
0.00950336
0.00823421
0.00701566
0.00569784
0.00441183
0.00329771
0.00223223
0.00148482
0.000806819
0.000447476
0.000165882
6.98397e-05
2.23788e-05
1.63285e-05
1.52755e-05
1.48665e-05
0.00024826
0.00024711
0.000235314
0.000184055
0.00013191
0.000111024
0.000330078
0.000640228
0.00141073
0.00225768
0.0035287
0.00486003
0.00637251
0.00794967
0.00937571
0.010896
0.0119824
0.013263
0.01404
0.0151592
0.0159277
0.0171642
0.0183163
0.0198681
0.0214587
0.0232427
0.0249126
0.0267666
0.0284529
0.0302966
0.0319467
0.0337253
0.035289
0.0369505
0.0383821
0.0398807
0.0411417
0.0424399
0.0435006
0.0445708
0.0454108
0.0462356
0.0468443
0.0474158
0.0477905
0.048109
0.0482544
0.0483266
0.0482524
0.0480894
0.0478086
0.0474241
0.0469511
0.0463596
0.0457093
0.0449252
0.0441116
0.0431489
0.0421858
0.0410584
0.0399598
0.0386831
0.0374644
0.0360568
0.0347365
0.0332206
0.0318215
0.0302255
0.0287751
0.0271325
0.0256623
0.0240111
0.0225553
0.0209352
0.0195298
0.0180049
0.0166932
0.0154036
0.0145089
0.0135128
0.012958
0.0120495
0.0114478
0.0103666
0.00944298
0.00814371
0.00691343
0.00558518
0.00431246
0.00320696
0.00216246
0.00143361
0.000774639
0.000431335
0.000161817
7.43064e-05
2.74252e-05
2.29163e-05
1.96897e-05
1.92657e-05
0.000282929
0.000281817
0.000268218
0.000217405
0.000170982
0.000151211
0.000333244
0.000643838
0.00132416
0.00216927
0.00335321
0.00468076
0.00616183
0.00773473
0.00921512
0.0107326
0.0119605
0.0132411
0.0142061
0.0153275
0.0162767
0.0175154
0.0187839
0.0203357
0.0219878
0.0237712
0.0255104
0.0273637
0.0291255
0.0309687
0.0326936
0.0344717
0.0361081
0.0377691
0.0392698
0.0407679
0.0420928
0.0433905
0.0445086
0.0455785
0.0464686
0.0472931
0.0479434
0.0485147
0.0489223
0.0492406
0.0494093
0.0494815
0.0494208
0.0492578
0.0489804
0.048596
0.0481162
0.0475249
0.0468573
0.0460734
0.0452321
0.0442696
0.0432685
0.0421415
0.0409948
0.0397186
0.0384425
0.0370353
0.0356492
0.0341338
0.0326617
0.0310662
0.0295372
0.0278952
0.0263428
0.0246921
0.0231526
0.021533
0.0200498
0.0185254
0.0171444
0.0158546
0.0148416
0.0138434
0.0131133
0.0122027
0.0114261
0.010345
0.00930127
0.00800446
0.00673757
0.00541277
0.00416948
0.00306697
0.0020838
0.0013566
0.000755491
0.000412444
0.000169107
8.13321e-05
3.48407e-05
3.02337e-05
2.60739e-05
2.5643e-05
0.000320397
0.000319327
0.000311543
0.000261157
0.000207726
0.000189277
0.000336662
0.000647736
0.00123067
0.0020738
0.00316371
0.00448717
0.00593432
0.00750262
0.00904171
0.0105561
0.0119368
0.0132174
0.0143854
0.0155093
0.0166535
0.0178947
0.0192888
0.0208407
0.0225591
0.0243419
0.0261558
0.0280084
0.0298518
0.0316943
0.0335001
0.0352776
0.0369926
0.0386531
0.0402283
0.0417258
0.0431197
0.044417
0.0455972
0.0466667
0.0476108
0.048435
0.0491304
0.0497015
0.0501443
0.0504626
0.0506565
0.0507286
0.0506825
0.0505196
0.0502458
0.0498616
0.0493743
0.0487832
0.0480969
0.0473133
0.046442
0.0454799
0.0444376
0.043311
0.0421124
0.0408366
0.0394986
0.0380919
0.0366348
0.0351199
0.033569
0.031974
0.0303602
0.0287187
0.0270775
0.0254274
0.0237975
0.0221785
0.0206113
0.0190874
0.0176316
0.0163416
0.0152009
0.0142003
0.013281
0.0123682
0.0114028
0.0103217
0.00914825
0.00785409
0.00654766
0.00522661
0.00401509
0.00291579
0.00199885
0.00127344
0.000734815
0.000392045
0.000171613
8.34336e-05
4.22265e-05
3.75092e-05
3.29562e-05
3.25178e-05
0.000361369
0.000360345
0.000372514
0.000322952
0.000216171
0.000197951
0.000223822
0.000531741
0.00100547
0.00184243
0.00286834
0.00418481
0.00566269
0.00722535
0.00889272
0.0104048
0.011962
0.0132437
0.0145865
0.015713
0.0170049
0.0182482
0.019766
0.0213179
0.0231492
0.0249313
0.0268495
0.0287015
0.0306454
0.0324872
0.0343927
0.0361696
0.0379806
0.0396405
0.0413057
0.0428028
0.0442786
0.0455754
0.0468277
0.0478968
0.048902
0.049726
0.0504707
0.0510416
0.0515218
0.0518399
0.0520589
0.052131
0.0520977
0.0519349
0.0516619
0.0512778
0.0507792
0.0501883
0.0494785
0.0486953
0.0477884
0.0468267
0.0457368
0.0446106
0.0433523
0.042077
0.0406674
0.0392612
0.0377216
0.0362073
0.0345642
0.0329699
0.0312562
0.0296154
0.0278693
0.0262197
0.0244831
0.0228647
0.021187
0.0196636
0.0180918
0.0168017
0.0155393
0.0145366
0.0134754
0.01256
0.0114291
0.010347
0.00901482
0.00772276
0.006313
0.00499672
0.00376993
0.00267629
0.00181244
0.00109194
0.000627581
0.000287704
0.000141709
5.42985e-05
4.9033e-05
4.42258e-05
4.02007e-05
3.97543e-05
0.000405662
0.000404883
0.000436215
0.000387555
0.000226694
0.000209682
0.000101128
0.000405385
0.000750923
0.00158105
0.00254249
0.00385127
0.00536776
0.0069243
0.00873569
0.0102452
0.0119974
0.0132803
0.0148051
0.0159345
0.0173714
0.0186169
0.0202685
0.0218204
0.0237849
0.0255662
0.0275984
0.0294497
0.0315029
0.033344
0.0353578
0.0371339
0.0390493
0.0407085
0.0424715
0.0439679
0.0455326
0.0468289
0.0481594
0.0492281
0.0502995
0.0511231
0.0519213
0.0524919
0.0530123
0.0533303
0.0535763
0.0536483
0.0536288
0.053466
0.0531936
0.0528097
0.0522987
0.051708
0.0509728
0.0501899
0.0492446
0.0482832
0.0471416
0.0460159
0.0446929
0.0434181
0.0419311
0.0405255
0.0388965
0.0373828
0.0356398
0.0340461
0.0322241
0.030584
0.0287241
0.0270753
0.0252229
0.0236051
0.021807
0.0202842
0.0185763
0.0172862
0.0158932
0.0148883
0.013688
0.0127697
0.0114656
0.0103824
0.00887388
0.00758407
0.00605777
0.00474669
0.0034993
0.00241186
0.00160263
0.000887555
0.000511005
0.000174432
0.000111854
2.39466e-05
5.72531e-05
5.27249e-05
4.81355e-05
4.76211e-05
0.000456689
0.000464941
0.000496598
0.000452915
0.000293439
0.000234993
0.000116143
0.000328647
0.00065182
0.00136707
0.00231662
0.0035391
0.00505258
0.0065988
0.00842079
0.0100136
0.011791
0.0132245
0.0147777
0.0160713
0.0175341
0.0189081
0.0205783
0.0222091
0.0241678
0.0260058
0.028046
0.0299484
0.0320093
0.0339013
0.0359227
0.0377487
0.0396715
0.0413789
0.0431488
0.0446911
0.046262
0.0476012
0.0489373
0.0500454
0.0511216
0.0519807
0.0527827
0.0533846
0.0539079
0.0542521
0.0545001
0.0545929
0.0545744
0.0544265
0.0541543
0.0537784
0.0532666
0.0526767
0.0519399
0.0511497
0.0502018
0.0492247
0.0480796
0.0469294
0.0456019
0.0442935
0.0428011
0.0413532
0.0397179
0.0381537
0.0364037
0.0347523
0.0329227
0.0312192
0.0293513
0.0276355
0.0257749
0.0240887
0.0222819
0.0206865
0.0189806
0.0176021
0.01619
0.0150569
0.0138313
0.0127585
0.011427
0.0102105
0.00867919
0.00732257
0.00578805
0.00448832
0.00324441
0.00222119
0.00142193
0.000784788
0.000424185
0.000147571
9.26284e-05
3.48384e-05
6.79313e-05
6.68028e-05
6.21378e-05
5.94448e-05
0.00051179
0.000529795
0.000561801
0.000523493
0.000365514
0.000262324
0.000144166
0.000246135
0.000567148
0.00114306
0.00208735
0.00320623
0.00471259
0.00624729
0.00806244
0.00975618
0.0115293
0.0131456
0.0146978
0.016194
0.0176577
0.0191949
0.0208655
0.0225981
0.0245559
0.0264597
0.028499
0.030461
0.032521
0.0344723
0.0364928
0.0383769
0.0402988
0.0420623
0.0438314
0.0454271
0.0469973
0.0483865
0.0497219
0.0508761
0.0519518
0.0528523
0.0536539
0.054292
0.0548152
0.0551899
0.0554377
0.0555548
0.0555363
0.0554056
0.0551335
0.054767
0.0542555
0.0536665
0.0529299
0.0521314
0.0511839
0.0501886
0.049044
0.0478651
0.0465382
0.0451908
0.0436991
0.0422019
0.0405674
0.0389444
0.0371952
0.0354767
0.033648
0.0318708
0.0300038
0.02821
0.0263502
0.0245844
0.0227785
0.0210984
0.0193933
0.0179011
0.0164885
0.0151916
0.0139649
0.0127009
0.0113701
0.00999158
0.00846382
0.00702614
0.00549724
0.00421056
0.00297246
0.00202632
0.00123154
0.000688807
0.000330666
0.000126209
7.18682e-05
4.65999e-05
7.94622e-05
8.20047e-05
7.72581e-05
7.22126e-05
0.000571291
0.000599827
0.00063221
0.000599706
0.000443343
0.000291838
0.000174427
0.000157035
0.000475715
0.000901172
0.00183978
0.00284679
0.00434545
0.00586772
0.00767549
0.00947826
0.0112467
0.0130604
0.0146116
0.0163265
0.0177912
0.0195046
0.0211756
0.0230182
0.0249749
0.02695
0.0289882
0.0310146
0.0330735
0.0350889
0.0371083
0.0390553
0.0409762
0.0428004
0.0445685
0.0462219
0.0477913
0.0492345
0.0505693
0.0517731
0.0528482
0.0537934
0.0545947
0.055272
0.0557948
0.0562026
0.0564503
0.0565935
0.056575
0.0564629
0.0561909
0.0558345
0.0553233
0.0547352
0.0539991
0.0531915
0.0522445
0.0512293
0.0500853
0.0488756
0.0475494
0.0461598
0.0446689
0.0431184
0.0414847
0.0397982
0.0380499
0.036259
0.0344311
0.0325745
0.0307084
0.0288304
0.0269716
0.0251197
0.0233147
0.0215433
0.019839
0.018224
0.0168108
0.0153371
0.0141093
0.0126387
0.0113087
0.00975517
0.00823125
0.00670603
0.00518321
0.00391062
0.0026788
0.00181589
0.00102595
0.000585161
0.000229681
0.000103142
4.94505e-05
5.93005e-05
9.19136e-05
9.84204e-05
9.35855e-05
8.59998e-05
0.000646451
0.000678329
0.0007005
0.000670589
0.000541248
0.00037452
0.000255025
0.00018981
0.000431501
0.000793455
0.00161101
0.0025685
0.00394857
0.00546066
0.00720924
0.00905156
0.010864
0.0127562
0.0144346
0.0162424
0.0178462
0.0196394
0.0213793
0.0232725
0.0252149
0.027217
0.0292494
0.0313002
0.0333524
0.0353921
0.0374046
0.0393754
0.0412905
0.0431377
0.0449022
0.0465775
0.0481465
0.0496103
0.0509484
0.0521711
0.0532537
0.0542161
0.0550287
0.055721
0.0562586
0.0566791
0.0569441
0.0570975
0.057098
0.056993
0.0567404
0.0563881
0.0558954
0.0553079
0.0545883
0.0537774
0.0528442
0.0518217
0.0506879
0.0494664
0.0481463
0.0467407
0.0452515
0.0436808
0.0420446
0.0403339
0.0385788
0.0367602
0.0349219
0.0330348
0.0311549
0.0292447
0.0273694
0.0254846
0.0236622
0.0218557
0.020143
0.0184714
0.0169779
0.0154234
0.0140602
0.0125012
0.0110601
0.00943658
0.00788288
0.00632592
0.00485428
0.0035916
0.00244445
0.00161876
0.00090693
0.000509865
0.000204121
0.000109622
6.54503e-05
8.77587e-05
0.000111993
0.000119276
0.000114218
0.000105837
0.00072481
0.000756759
0.000807606
0.000778854
0.000662213
0.000498605
0.000335277
0.000272692
0.000368516
0.000729052
0.00132966
0.00228076
0.00347277
0.00497473
0.00665566
0.00848715
0.0103932
0.0122776
0.014175
0.0159794
0.0178207
0.0196129
0.021484
0.0233762
0.0253364
0.0273374
0.0293665
0.031416
0.0334633
0.0355018
0.0375088
0.0394785
0.0413893
0.0432354
0.0449987
0.0466729
0.0482451
0.049708
0.0510546
0.0522767
0.0533735
0.0543354
0.0551679
0.0558598
0.0564223
0.0568426
0.0571364
0.0572897
0.0573211
0.0572162
0.0569949
0.0566429
0.0561802
0.055593
0.0549001
0.0540897
0.0531782
0.0521564
0.051038
0.0498173
0.0485053
0.0471006
0.0456117
0.044042
0.042398
0.0406883
0.0389179
0.0371004
0.0352395
0.0333536
0.031445
0.029536
0.0276272
0.0257436
0.0238856
0.0220802
0.0203162
0.0186454
0.0170015
0.0154476
0.0138517
0.0122954
0.0106614
0.00904438
0.00742284
0.00587465
0.00446505
0.00321042
0.00220118
0.00138086
0.000812006
0.000417164
0.000203996
0.000109239
9.81124e-05
0.000119509
0.000143755
0.000150687
0.000135843
0.000127442
0.000791904
0.000825134
0.000949554
0.000927562
0.000813286
0.000652275
0.000340148
0.000279342
0.000128645
0.000482533
0.000834307
0.00177339
0.00280921
0.00429718
0.0059957
0.00781411
0.00990133
0.0117776
0.013918
0.0157189
0.0177697
0.0195606
0.0215519
0.0234429
0.0254429
0.0274424
0.0294862
0.0315343
0.0335938
0.0356308
0.0376491
0.0396172
0.0415391
0.0433839
0.0451592
0.0468322
0.0484182
0.04988
0.0512431
0.0524643
0.0535809
0.054542
0.0553977
0.0560891
0.056678
0.057098
0.0574205
0.0575738
0.0576354
0.0575308
0.0573399
0.0569881
0.0565541
0.0559674
0.0552998
0.05449
0.0535984
0.0525773
0.0514716
0.0502519
0.0489438
0.04754
0.0460451
0.0444765
0.0428157
0.0411073
0.0393094
0.0374932
0.0355952
0.0337106
0.0317568
0.0298491
0.0278896
0.0260072
0.024094
0.0222899
0.0204501
0.0187803
0.0170007
0.0154475
0.0136472
0.0120937
0.0102397
0.00862945
0.00686233
0.005325
0.00391614
0.00267281
0.00179094
0.00098027
0.000586546
0.000197658
0.000141293
4.71377e-05
0.000128698
0.000149824
0.000186655
0.000191301
0.00015505
0.000146198
0.000863789
0.000918693
0.00104357
0.00106569
0.00095445
0.000800139
0.00049207
0.000336473
0.000181525
0.000335128
0.000678991
0.00136648
0.00239053
0.0036673
0.00535167
0.00708501
0.00916541
0.0111016
0.0132436
0.0151815
0.0172374
0.0191267
0.0211132
0.0229944
0.0249666
0.0268836
0.028926
0.0308736
0.0329316
0.0348659
0.0368828
0.0387505
0.0406711
0.0424221
0.0441962
0.0457866
0.0473714
0.0487653
0.0501275
0.0512979
0.0524137
0.0533429
0.054198
0.0548768
0.0554652
0.0558911
0.0562135
0.0563898
0.0564514
0.0563847
0.0561939
0.0558925
0.0554588
0.0549321
0.054265
0.0535223
0.0526313
0.0516818
0.0505769
0.0494312
0.048124
0.0467948
0.0453009
0.0438058
0.0421462
0.040509
0.0387124
0.0369639
0.0350672
0.0332459
0.0312935
0.029444
0.0274859
0.0256562
0.0237443
0.0219764
0.02016
0.0184672
0.0166896
0.0150283
0.0132217
0.011541
0.00968466
0.00802572
0.00626438
0.00479769
0.00340056
0.0023142
0.0014421
0.000804236
0.000417603
0.000160503
0.000108736
8.15336e-05
0.000162203
0.000192758
0.000228674
0.000219753
0.000183362
0.000166864
0.000941413
0.00101972
0.00114453
0.00121486
0.00110689
0.000959808
0.000656122
0.000398165
0.000244832
0.000176769
0.000516803
0.000927094
0.00194141
0.00298713
0.00465755
0.00629766
0.00836359
0.0103647
0.0124953
0.0145821
0.016631
0.0186275
0.0206104
0.0224816
0.0244523
0.0262802
0.0283211
0.0301601
0.0322166
0.03404
0.0360553
0.0378145
0.0397337
0.0413836
0.0431563
0.0446575
0.0462412
0.0475616
0.0489228
0.0500384
0.0511534
0.0520482
0.0529026
0.0535677
0.0541557
0.054588
0.0549101
0.0551112
0.0551728
0.0551471
0.0549564
0.0547094
0.054276
0.0538143
0.0531476
0.0524774
0.051587
0.0507149
0.0496107
0.0485449
0.0472387
0.04599
0.0444972
0.0430816
0.0414233
0.039863
0.0380677
0.0363924
0.0344971
0.0327442
0.0307933
0.0290066
0.02705
0.0252771
0.0233667
0.021638
0.019823
0.0181033
0.0163285
0.0145477
0.0127468
0.0109273
0.00908019
0.00736835
0.0056188
0.00422956
0.00284382
0.00192915
0.00106541
0.000617882
0.000235682
0.000124356
7.35808e-05
0.000118676
0.000198384
0.000239121
0.000274048
0.000250369
0.000213935
0.000189179
0.0010465
0.0011282
0.00122073
0.00129592
0.00124895
0.0011079
0.000880852
0.000607085
0.000418051
0.000307241
0.000466857
0.000818806
0.00154796
0.00253943
0.00390401
0.00551266
0.0073712
0.00937025
0.0114481
0.013552
0.0156197
0.0176298
0.0195714
0.0214385
0.0232526
0.0250623
0.0269122
0.0287292
0.030578
0.0323789
0.0341876
0.0359248
0.0376461
0.0392755
0.0408666
0.0423497
0.0437745
0.04508
0.0463101
0.0474146
0.0484297
0.0493174
0.050105
0.050767
0.0513211
0.0517543
0.0520742
0.05228
0.0523687
0.0523508
0.0522134
0.0519771
0.0516197
0.0511707
0.0505998
0.0499439
0.0491659
0.0483092
0.0473317
0.0462819
0.0451142
0.0438818
0.0425375
0.041138
0.0396361
0.0380915
0.0364581
0.0347979
0.0330671
0.0313285
0.0295412
0.0277678
0.0259702
0.0242095
0.0224417
0.0207217
0.0190207
0.0172961
0.0155358
0.0137362
0.0119111
0.0100734
0.00827648
0.00656594
0.00498492
0.00362143
0.00245634
0.00158291
0.00090608
0.00050017
0.000232358
0.000150959
0.000134086
0.000192332
0.000248354
0.000289411
0.000302287
0.00027726
0.000247385
0.000221436
0.00108331
0.00116499
0.00139064
0.00147054
0.00152979
0.00139322
0.00113807
0.000871899
0.000478987
0.000369658
0.000168985
0.000513488
0.000820308
0.00179527
0.00283097
0.00441741
0.00614635
0.00812385
0.0102408
0.0123286
0.0144739
0.0164744
0.0183517
0.0202157
0.0218025
0.0236106
0.0252091
0.0270245
0.0286235
0.0304227
0.031982
0.0337177
0.0351989
0.0368269
0.0381962
0.039678
0.0409071
0.0422115
0.0432788
0.0443823
0.0452722
0.046159
0.0468615
0.0475229
0.048033
0.0484659
0.0487816
0.0489872
0.0491091
0.0490912
0.0490212
0.0487851
0.048525
0.0480764
0.0476285
0.0469731
0.0463397
0.0454838
0.0446683
0.0436194
0.0426276
0.0413964
0.0402383
0.0388401
0.0375313
0.0359881
0.0345513
0.0328926
0.0313584
0.0296213
0.028027
0.0262552
0.0246437
0.0228844
0.0213003
0.0195817
0.0180434
0.0163216
0.01459
0.0127984
0.0108967
0.00907246
0.00725051
0.00555766
0.00409436
0.00274885
0.00183865
0.000978819
0.000598571
0.000200029
0.000167594
8.79484e-05
0.000201205
0.000257479
0.000343787
0.000383209
0.000359766
0.000332819
0.000258091
0.000232151
0.00112021
0.00122843
0.00145475
0.00161747
0.00168256
0.00164516
0.00139829
0.00115108
0.000748991
0.000501102
0.000277188
0.00031659
0.000590155
0.00115874
0.00215518
0.00335127
0.00505113
0.00675435
0.00885764
0.0107867
0.0129247
0.0147766
0.016632
0.0182576
0.0198046
0.0212952
0.0228782
0.0243543
0.025938
0.0273954
0.0289395
0.0303416
0.0318081
0.0331215
0.0344772
0.0356734
0.0368906
0.0379469
0.0390041
0.0399036
0.0407858
0.0415171
0.0422143
0.0427709
0.043278
0.043657
0.0439722
0.0441733
0.044297
0.0443212
0.0442549
0.0441039
0.0438496
0.0435252
0.0430846
0.0425888
0.041964
0.0412991
0.0404935
0.0396636
0.0386826
0.0376948
0.0365482
0.035414
0.0341171
0.0328542
0.0314297
0.0300624
0.0285404
0.0270999
0.0255177
0.0240412
0.0224414
0.0209693
0.0193969
0.0179424
0.0164364
0.0149086
0.013193
0.0115211
0.00962412
0.00793161
0.00612152
0.0046478
0.00320949
0.00215463
0.00127611
0.000699533
0.000345199
0.000151178
0.000136723
0.000156513
0.000278666
0.000345586
0.000430555
0.000436845
0.000411437
0.000354032
0.000279059
0.000243333