/*--------------------------------*- C++ -*----------------------------------*\
| =========                 |                                                 |
| \\      /  F ield         | OpenFOAM: The Open Source CFD Toolbox           |
|  \\    /   O peration     | Version:  v2106                                 |
|   \\  /    A nd           | Website:  www.openfoam.com                      |
|    \\/     M anipulation  |                                                 |
\*---------------------------------------------------------------------------*/
FoamFile
{
    version     2.0;
    format      ascii;
    arch        "LSB;label=32;scalar=64";
    class       volScalarField;
    location    "0";
    object      expGpCoeffs27;
}
// * * * * * * * * * * * * * * * * * * * * * * * * * * * * * * * * * * * * * //

dimensions      [0 0 0 0 0 0 0];

internalField   nonuniform List<scalar> 
8000
(
0.00188225
0.00202415
0.00224127
0.00250063
0.00265694
0.0026898
0.00250753
0.00213122
0.00164941
0.00107804
0.00062974
0.000321067
0.000311317
0.000607525
0.00121181
0.002116
0.00317451
0.00438409
0.00559921
0.00681818
0.00802148
0.00920217
0.0104254
0.0116818
0.0130128
0.0144226
0.0159109
0.0174769
0.0191118
0.0208141
0.0225698
0.0243769
0.0262155
0.0280831
0.0299542
0.0318258
0.0336677
0.0354769
0.0372201
0.0388942
0.0404655
0.0419308
0.0432589
0.0444468
0.0454682
0.0463208
0.0469853
0.0474604
0.0477359
0.0478111
0.047686
0.0473608
0.0468451
0.0461403
0.0452646
0.0442202
0.0430323
0.0417038
0.0402643
0.0387171
0.0370938
0.0353977
0.0336602
0.0318843
0.0300987
0.0283062
0.0265313
0.0247764
0.023061
0.0213871
0.0197687
0.0182074
0.0167124
0.0152846
0.0139308
0.0126517
0.0114558
0.0103396
0.00927853
0.00828021
0.00727712
0.00627438
0.00524799
0.00419812
0.00320327
0.00226263
0.00148264
0.000866974
0.000438552
0.000195463
6.66403e-05
4.47326e-05
4.08148e-05
4.92741e-05
4.44265e-05
2.77677e-05
1.72684e-05
1.88484e-05
2.80771e-05
3.84072e-05
0.00187082
0.00201269
0.00224313
0.00250252
0.00267291
0.00270624
0.00252435
0.00214844
0.001649
0.00107739
0.000610132
0.000300805
0.000282897
0.000578457
0.00119098
0.00209489
0.00316969
0.00437934
0.00560219
0.00682121
0.00802098
0.00920155
0.0104197
0.0116759
0.0130063
0.0144159
0.015905
0.0174708
0.0191069
0.020809
0.0225664
0.0243733
0.0262142
0.0280816
0.0299554
0.0318268
0.0336718
0.0354807
0.0372272
0.038901
0.0404755
0.0419406
0.0432715
0.0444593
0.0454828
0.0463353
0.0470012
0.0474763
0.0477522
0.0478275
0.0477019
0.0473767
0.0468597
0.046155
0.0452772
0.044233
0.0430425
0.0417141
0.0402717
0.0387246
0.0370982
0.0354024
0.033662
0.0318863
0.0300981
0.0283058
0.0265287
0.024774
0.0230569
0.0213831
0.0197635
0.0182024
0.0167066
0.015279
0.0139244
0.0126455
0.0114488
0.0103328
0.00927562
0.00827741
0.00727981
0.00627703
0.00524832
0.0041983
0.00319311
0.00225248
0.0014655
0.00085009
0.000424817
0.000182024
6.21517e-05
4.03717e-05
4.28067e-05
5.12047e-05
4.44847e-05
2.78197e-05
1.57241e-05
1.73246e-05
2.89111e-05
3.9239e-05
0.00185848
0.00200032
0.00224515
0.00250455
0.00269016
0.002724
0.0025425
0.00216703
0.00164855
0.00107668
0.000588958
0.000278925
0.000252208
0.000547069
0.00116848
0.00207211
0.00316448
0.00437421
0.00560542
0.00682448
0.00802043
0.00920088
0.0104135
0.0116695
0.0129993
0.0144087
0.0158986
0.0174642
0.0191016
0.0208035
0.0225628
0.0243695
0.0262128
0.0280799
0.0299567
0.0318278
0.0336762
0.0354848
0.0372348
0.0389084
0.0404862
0.0419512
0.043285
0.0444727
0.0454986
0.0463509
0.0470184
0.0474934
0.0477699
0.0478452
0.0477191
0.047394
0.0468755
0.0461709
0.0452909
0.0442468
0.0430534
0.0417252
0.0402796
0.0387327
0.0371031
0.0354075
0.0336639
0.0318884
0.0300974
0.0283053
0.0265258
0.0247714
0.0230525
0.0213789
0.0197579
0.018197
0.0167003
0.0152729
0.0139175
0.0126388
0.0114413
0.0103254
0.00927247
0.00827439
0.00728272
0.0062799
0.00524868
0.0041985
0.00318214
0.00224151
0.001447
0.000831859
0.000409986
0.000167512
5.73047e-05
3.56626e-05
4.49576e-05
5.32894e-05
4.45476e-05
2.7876e-05
1.40565e-05
1.56791e-05
2.98118e-05
4.01373e-05
0.00184515
0.00198696
0.00224733
0.00250675
0.00270879
0.00274318
0.00256211
0.0021871
0.00164807
0.00107591
0.000566093
0.000255299
0.000219069
0.000513174
0.00114418
0.0020475
0.00315886
0.00436867
0.0056089
0.00682801
0.00801984
0.00920015
0.0104068
0.0116627
0.0129917
0.0144009
0.0158917
0.0174571
0.0190959
0.0207975
0.0225589
0.0243653
0.0262113
0.0280781
0.0299581
0.0318289
0.0336809
0.0354893
0.037243
0.0389164
0.0404979
0.0419626
0.0432997
0.0444872
0.0455157
0.0463679
0.047037
0.0475119
0.047789
0.0478642
0.0477377
0.0474126
0.0468926
0.0461881
0.0453056
0.0442617
0.0430652
0.0417372
0.0402881
0.0387415
0.0371083
0.0354129
0.0336659
0.0318907
0.0300966
0.0283049
0.0265228
0.0247686
0.0230477
0.0213744
0.0197519
0.0181912
0.0166935
0.0152664
0.0139101
0.0126315
0.0114332
0.0103175
0.00926907
0.00827113
0.00728586
0.006283
0.00524906
0.00419871
0.00317029
0.00222968
0.00142701
0.000812172
0.00039397
0.000151841
5.20707e-05
3.05776e-05
4.72803e-05
5.55406e-05
4.46156e-05
2.79367e-05
1.22558e-05
1.39022e-05
3.07843e-05
4.11072e-05
0.00183077
0.00197253
0.00224968
0.00250792
0.0027289
0.00276388
0.00258328
0.00220878
0.00164755
0.00107508
0.000541403
0.000229786
0.000183285
0.000476573
0.00111795
0.00202093
0.00315279
0.00436269
0.00561266
0.00683182
0.00801921
0.00919937
0.0103996
0.0116552
0.0129835
0.0143925
0.0158843
0.0174494
0.0190898
0.0207911
0.0225547
0.0243608
0.0262096
0.0280762
0.0299596
0.0318302
0.033686
0.0354941
0.0372519
0.038925
0.0405104
0.0419749
0.0433155
0.0445028
0.0455341
0.0463861
0.047057
0.0475318
0.0478096
0.0478848
0.0477577
0.0474327
0.046911
0.0462066
0.0453216
0.0442778
0.043078
0.0417502
0.0402974
0.038751
0.0371139
0.0354188
0.0336681
0.0318932
0.0300958
0.0283043
0.0265195
0.0247656
0.0230425
0.0213694
0.0197454
0.018185
0.0166862
0.0152593
0.0139021
0.0126237
0.0114244
0.0103089
0.00926541
0.00826761
0.00728924
0.00628634
0.00524948
0.00419894
0.0031575
0.0022169
0.00140543
0.000790913
0.000376676
0.000134919
4.64188e-05
2.50866e-05
4.97883e-05
5.79715e-05
4.46889e-05
2.80023e-05
1.07261e-05
1.19834e-05
3.18345e-05
4.21546e-05
0.00181657
0.00195835
0.00224046
0.00250172
0.00274027
0.00277776
0.00260473
0.00223416
0.0016475
0.00107641
0.000517226
0.00020653
0.000148012
0.000439971
0.00108985
0.00199173
0.00314623
0.00435623
0.00561672
0.00683594
0.00801852
0.00919852
0.0103918
0.0116472
0.0129701
0.0143784
0.0158711
0.0174354
0.0190773
0.0207779
0.0225436
0.024349
0.0262006
0.0280664
0.0299532
0.0318231
0.0336827
0.0354901
0.0372518
0.0389242
0.0405134
0.0419772
0.0433212
0.0445078
0.0455417
0.046393
0.0470657
0.0475399
0.0478182
0.047893
0.0477654
0.04744
0.0469168
0.0462122
0.0453246
0.044281
0.043078
0.0417506
0.0402942
0.0387486
0.0371078
0.0354136
0.0336594
0.0318856
0.030085
0.0282948
0.0265073
0.0247547
0.0230295
0.0213578
0.0197323
0.0181732
0.0166734
0.0152477
0.0138896
0.0126122
0.011415
0.0102997
0.00926145
0.00826381
0.0072929
0.00628995
0.00524993
0.00419919
0.00314275
0.00220269
0.00138067
0.000768488
0.000358462
0.000117358
4.06807e-05
1.92959e-05
5.24188e-05
6.03005e-05
4.4756e-05
2.8391e-05
1.1635e-05
1.52834e-05
3.41021e-05
4.4914e-05
0.00180412
0.00194587
0.00222786
0.00249503
0.00273348
0.00278907
0.0026163
0.00226707
0.00168112
0.00111595
0.000557636
0.000227179
0.00016919
0.000422966
0.00107269
0.00193868
0.0030943
0.00429332
0.00555337
0.00678266
0.00796137
0.00915222
0.0103394
0.0115959
0.0129133
0.0143169
0.0158093
0.0173681
0.0190097
0.0207054
0.0224707
0.0242718
0.026123
0.0279849
0.0298713
0.0317374
0.0335966
0.0354001
0.0371615
0.0388296
0.0404185
0.0418776
0.0432213
0.0444026
0.0454364
0.0462822
0.0469547
0.0474234
0.0477017
0.0477715
0.0476439
0.0473148
0.0467916
0.0460849
0.0451975
0.0441539
0.0429511
0.041626
0.0401698
0.0386288
0.0369884
0.035301
0.0335471
0.0317819
0.0299817
0.0282014
0.0264143
0.0246725
0.0229476
0.021287
0.0196618
0.0181136
0.0166141
0.0151988
0.0138409
0.0125718
0.011378
0.0102633
0.00922901
0.00822098
0.0072536
0.0062363
0.00519736
0.00414454
0.00308664
0.00216419
0.00134278
0.000753517
0.000343701
0.000117445
4.07254e-05
2.19863e-05
5.50435e-05
6.03786e-05
4.4823e-05
2.93969e-05
1.26165e-05
2.00497e-05
3.88401e-05
5.13655e-05
0.00179067
0.00193239
0.00221426
0.0024878
0.00272615
0.00280128
0.0026288
0.0023026
0.00171742
0.00115864
0.000601272
0.000249476
0.000192059
0.000404604
0.00105415
0.0018814
0.00303612
0.00421825
0.00547717
0.00671124
0.00788908
0.00908989
0.0102766
0.0115347
0.0128519
0.0142504
0.0157426
0.0172955
0.0189367
0.0206271
0.0223921
0.0241884
0.0260393
0.0278969
0.0297829
0.0316448
0.0335037
0.035303
0.037064
0.0387275
0.0403161
0.04177
0.0431134
0.0442891
0.0453226
0.0461624
0.0468348
0.0472976
0.0475758
0.0476404
0.0475128
0.0471795
0.0466565
0.0459475
0.0450603
0.0440165
0.042814
0.0414914
0.0400355
0.0384995
0.0368594
0.0351794
0.0334258
0.03167
0.0298701
0.0281006
0.0263138
0.0245837
0.0228591
0.0212105
0.0195856
0.0180492
0.01655
0.0151459
0.0137883
0.012528
0.0113345
0.0102202
0.00918635
0.00816749
0.00720075
0.00617177
0.00513379
0.00408295
0.00302605
0.00212262
0.00130187
0.000737351
0.000327762
0.000117539
4.07737e-05
2.48916e-05
5.78779e-05
6.04629e-05
4.48954e-05
3.04831e-05
1.36764e-05
2.51965e-05
4.39565e-05
5.83321e-05
0.00177614
0.00191783
0.00219958
0.00248
0.00271823
0.00281447
0.00264229
0.00234096
0.00175662
0.00120474
0.000648392
0.000273553
0.000216754
0.000384776
0.00103413
0.00181955
0.0029733
0.00413719
0.00539489
0.00663411
0.00781103
0.00902259
0.0102087
0.0114687
0.0127856
0.0141787
0.0156705
0.017217
0.0188578
0.0205426
0.0223072
0.0240984
0.0259489
0.0278018
0.0296874
0.0315449
0.0334034
0.0351981
0.0369587
0.0386172
0.0402055
0.0416538
0.042997
0.0441665
0.0451998
0.0460331
0.0467054
0.0471618
0.0474399
0.0474987
0.0473712
0.0470335
0.0465106
0.0457991
0.0449121
0.0438683
0.042666
0.041346
0.0398905
0.0383599
0.0367201
0.035048
0.0332949
0.0315491
0.0297496
0.0279917
0.0262053
0.0244878
0.0227636
0.0211279
0.0195034
0.0179797
0.0164809
0.0150888
0.0137315
0.0124808
0.0112875
0.0101737
0.00914028
0.00810972
0.00714369
0.00610208
0.00506514
0.00401644
0.00296062
0.00207772
0.00125769
0.000719893
0.00031055
0.00011764
4.08258e-05
2.80288e-05
6.09385e-05
6.05539e-05
4.49737e-05
3.16561e-05
1.48209e-05
3.07543e-05
4.94813e-05
6.58549e-05
0.00176046
0.00190211
0.00218372
0.00247157
0.00270967
0.0028287
0.00265686
0.00238239
0.00179895
0.00125452
0.000699274
0.000299553
0.000243421
0.000363364
0.00101252
0.00175276
0.00290547
0.00404966
0.00530604
0.00655083
0.00772674
0.00894991
0.0101355
0.0113974
0.012714
0.0141012
0.0155926
0.0171323
0.0187727
0.0204513
0.0222154
0.0240012
0.0258512
0.0276992
0.0295843
0.031437
0.033295
0.0350848
0.036845
0.0384981
0.040086
0.0415284
0.0428712
0.0440341
0.0450672
0.0458935
0.0465656
0.0470151
0.0472932
0.0473458
0.0472182
0.0468758
0.046353
0.0456388
0.044752
0.0437082
0.0425062
0.0411891
0.0397339
0.0382091
0.0365697
0.0349062
0.0331535
0.0314185
0.0296195
0.0278742
0.0260882
0.0243842
0.0226604
0.0210387
0.0194146
0.0179046
0.0164062
0.0150272
0.0136702
0.0124298
0.0112368
0.0101236
0.00909052
0.00804734
0.00708206
0.00602682
0.004991
0.00394463
0.00288996
0.00202924
0.00120998
0.000701042
0.000291964
0.00011775
4.08821e-05
3.14165e-05
6.42434e-05
6.06521e-05
4.50581e-05
3.29227e-05
1.60568e-05
3.67558e-05
5.54472e-05
7.39783e-05
0.00174352
0.00188514
0.0021666
0.00246247
0.00270044
0.00284408
0.0026726
0.00242713
0.00184465
0.00130827
0.000754219
0.000327628
0.000272216
0.000340243
0.000989174
0.00168064
0.00283222
0.00395514
0.00521009
0.0064609
0.00763572
0.00887143
0.0100564
0.0113205
0.0126367
0.0140175
0.0155086
0.0170408
0.0186808
0.0203527
0.0221164
0.0238962
0.0257458
0.0275883
0.029473
0.0313205
0.0331781
0.0349625
0.0367222
0.0383696
0.039957
0.0413929
0.0427354
0.0438912
0.044924
0.0457428
0.0464147
0.0468567
0.0471347
0.0471806
0.0470531
0.0467055
0.0461828
0.0454658
0.0445792
0.0435353
0.0423336
0.0410196
0.0395648
0.0380463
0.0364073
0.034753
0.0330008
0.0312776
0.029479
0.0277472
0.0259617
0.0242724
0.0225491
0.0209424
0.0193187
0.0178236
0.0163255
0.0149606
0.0136039
0.0123748
0.0111821
0.0100694
0.0090368
0.00797998
0.00701552
0.00594556
0.00491095
0.00386708
0.00281367
0.00197689
0.00115847
0.000680686
0.000271894
0.000117868
4.09429e-05
3.50747e-05
6.78123e-05
6.07583e-05
4.51493e-05
3.42905e-05
1.73913e-05
4.32365e-05
6.18894e-05
8.27503e-05
0.00172523
0.00186681
0.00214811
0.00245264
0.00269046
0.00286068
0.00268959
0.00247543
0.00189401
0.00136632
0.000813551
0.000357946
0.000303311
0.000315276
0.000963969
0.00160275
0.00275312
0.00385307
0.00510649
0.00636379
0.00753743
0.00878669
0.00997098
0.0112374
0.0125532
0.0139272
0.0154178
0.0169419
0.0185815
0.0202462
0.0220095
0.0237829
0.0256319
0.0274686
0.0293528
0.0311947
0.0330517
0.0348304
0.0365896
0.0382307
0.0398178
0.0412466
0.0425888
0.0437368
0.0447693
0.04558
0.0462517
0.0466857
0.0469636
0.0470023
0.0468748
0.0465216
0.0459991
0.0452789
0.0443926
0.0433486
0.0421473
0.0408366
0.0393821
0.0378704
0.0362319
0.0345877
0.0328359
0.0311253
0.0293272
0.0276101
0.0258251
0.0241516
0.0224288
0.0208384
0.0192151
0.017736
0.0162384
0.0148887
0.0135324
0.0123153
0.011123
0.0100108
0.00897879
0.00790724
0.00694366
0.00585781
0.0048245
0.00378334
0.00273128
0.00192037
0.00110284
0.000658705
0.000250221
0.000117996
4.10085e-05
3.90249e-05
7.16661e-05
6.08729e-05
4.52478e-05
3.57675e-05
1.88324e-05
5.02345e-05
6.8846e-05
9.22227e-05
0.00170887
0.00185036
0.00211424
0.00242354
0.0026662
0.00285456
0.00271395
0.00252034
0.00196842
0.00144674
0.000904908
0.000426965
0.000351035
0.000321818
0.000925499
0.00152487
0.00264474
0.0037216
0.00497404
0.00622958
0.00741569
0.00867296
0.00986116
0.0111296
0.0124338
0.0138028
0.0152868
0.0168052
0.0184375
0.0200971
0.0218533
0.023622
0.0254641
0.0272966
0.0291737
0.0310115
0.0328612
0.0346357
0.0363873
0.0380238
0.0396028
0.0410267
0.0423606
0.0435032
0.0445275
0.0453325
0.0459966
0.0464249
0.0466965
0.0467302
0.0465981
0.0462411
0.0457164
0.0449942
0.0441085
0.0430645
0.0418669
0.0405587
0.0391109
0.0376041
0.0359749
0.0343378
0.0325975
0.0308959
0.0291109
0.0274041
0.0256331
0.0239708
0.0222621
0.0206831
0.0190737
0.0176059
0.0161213
0.0147823
0.0134375
0.0122288
0.0110483
0.00993661
0.0089009
0.00781903
0.00684119
0.00574768
0.00470535
0.00367127
0.00263
0.00183896
0.00104767
0.00062724
0.000237014
0.000120844
4.56959e-05
4.66864e-05
7.42446e-05
6.08486e-05
4.60795e-05
3.73062e-05
2.88058e-05
6.25142e-05
8.04012e-05
0.000105197
0.00169495
0.00183637
0.00207689
0.00238567
0.00263411
0.00282167
0.0027478
0.00255511
0.00209407
0.00157576
0.00105752
0.000583432
0.000428509
0.000401265
0.000857409
0.00145556
0.00244658
0.00352001
0.00473414
0.00598647
0.0072049
0.00846034
0.0096798
0.0109476
0.0122481
0.0136167
0.0150814
0.0165992
0.0182108
0.0198698
0.0216057
0.0233739
0.025196
0.0270279
0.0288847
0.030722
0.0325507
0.0343246
0.036054
0.0376901
0.0392457
0.0406692
0.0419789
0.0431211
0.0441215
0.0449262
0.0455678
0.045996
0.0462486
0.0462822
0.0461363
0.0457794
0.0452479
0.0445259
0.0436417
0.0425981
0.0414109
0.0401031
0.0386747
0.0371683
0.0355664
0.0339298
0.0322233
0.0305223
0.0287757
0.0270694
0.0253394
0.0236776
0.0220107
0.0204323
0.0188637
0.0173963
0.0159502
0.0146117
0.0133005
0.0120923
0.0109283
0.00981711
0.00875521
0.00767464
0.0066473
0.00555635
0.00450424
0.00347359
0.00249137
0.00170302
0.000998635
0.000579136
0.000245778
0.000129276
6.17344e-05
6.22425e-05
7.40405e-05
6.06369e-05
4.777e-05
3.89432e-05
4.25179e-05
7.60423e-05
9.74557e-05
0.000122225
0.00167602
0.00181738
0.00203225
0.0023405
0.00260934
0.00279582
0.00278436
0.00259265
0.00222974
0.00171509
0.00122232
0.000752391
0.000512169
0.000487054
0.000783884
0.00138071
0.00223259
0.00330232
0.00447508
0.00572395
0.00697729
0.00823076
0.00948395
0.010751
0.0120476
0.0134157
0.0148595
0.0163769
0.0179659
0.0196243
0.0213384
0.023106
0.0249065
0.0267377
0.0285727
0.0304093
0.0322153
0.0339886
0.0356942
0.0373297
0.0388601
0.0402831
0.0415668
0.0427086
0.043683
0.0444874
0.0451049
0.0455329
0.0457648
0.0457984
0.0456376
0.0452809
0.044742
0.0440202
0.0431377
0.0420944
0.0409186
0.0396112
0.0382036
0.0366977
0.0351253
0.0334892
0.0318192
0.0301187
0.0284136
0.026708
0.0250223
0.0233611
0.0217393
0.0201614
0.0186368
0.01717
0.0157655
0.0144274
0.0131526
0.0119448
0.0107987
0.00968807
0.00859788
0.00751872
0.00643793
0.00534974
0.00428707
0.00326013
0.00234167
0.00155623
0.000945688
0.000527192
0.000255242
0.000138381
7.90534e-05
7.90405e-05
7.382e-05
6.04083e-05
4.78575e-05
3.89346e-05
5.47495e-05
8.80574e-05
0.000116553
0.000141294
0.00159299
0.00173421
0.00197625
0.00228372
0.00263926
0.00282676
0.00293128
0.00274403
0.00241716
0.00190777
0.00134253
0.000875452
0.000466543
0.000440198
0.000569031
0.0011611
0.00193394
0.00299822
0.00418543
0.00543039
0.00673588
0.00798725
0.00926058
0.0105269
0.0117982
0.0131659
0.0145851
0.0161019
0.0176722
0.01933
0.0210292
0.0227961
0.024585
0.0264156
0.0282415
0.0300774
0.0318753
0.033648
0.0353448
0.0369797
0.0384994
0.0399219
0.0411918
0.0423332
0.0432906
0.0440947
0.0446925
0.0451204
0.0453316
0.0453652
0.0451848
0.0448282
0.0442734
0.0435519
0.0426594
0.0416166
0.0404387
0.0391318
0.0377313
0.0362261
0.03467
0.0330346
0.0313897
0.0296899
0.0280172
0.0263122
0.0246645
0.0230039
0.0214234
0.0198461
0.0183641
0.0168979
0.0155354
0.0141978
0.0129646
0.0117572
0.0106446
0.00953456
0.00842796
0.00735032
0.00621229
0.00512709
0.00402204
0.00299974
0.00210153
0.0013211
0.000799961
0.000384785
0.000216323
0.000100438
9.41484e-05
9.3686e-05
8.36708e-05
6.99421e-05
3.73916e-05
2.87553e-05
6.3116e-05
9.63106e-05
0.000148159
0.000172856
0.00150373
0.00164481
0.00191341
0.00222264
0.00266907
0.00285484
0.00309071
0.00290851
0.00262327
0.00211963
0.00146795
0.00100387
0.000408781
0.000380929
0.000323407
0.000910208
0.00160056
0.00265891
0.00387058
0.00511134
0.00647622
0.00772533
0.00901715
0.0102826
0.0115272
0.0128943
0.0142869
0.0158031
0.0173536
0.0190107
0.0206942
0.0224604
0.0242375
0.0260673
0.0278841
0.0297193
0.0315094
0.0332813
0.0349697
0.0366039
0.038113
0.0395348
0.0407906
0.0419315
0.0428711
0.0436749
0.0442519
0.0446796
0.0448685
0.0449021
0.0447005
0.044344
0.0437715
0.0430503
0.0421465
0.0411041
0.0399234
0.038617
0.0372234
0.0357187
0.0341796
0.0325449
0.0309263
0.0292272
0.0275889
0.0258846
0.0242773
0.0226174
0.0210811
0.0195044
0.0180682
0.0166025
0.0152852
0.0139482
0.0127599
0.0115531
0.0104755
0.00936614
0.00824446
0.00716847
0.00596873
0.00488674
0.003731
0.00271374
0.00183443
0.00105951
0.000637136
0.000225662
0.000170599
5.58336e-05
0.000110124
0.000109181
9.44008e-05
8.03083e-05
2.81304e-05
1.85996e-05
7.58821e-05
0.000112883
0.000182507
0.000207246
0.00143237
0.00156817
0.00183625
0.00215717
0.00260235
0.00285661
0.00310462
0.00301924
0.00274831
0.00231013
0.00165399
0.00116419
0.000554004
0.00040131
0.000319657
0.000739254
0.00141262
0.00234151
0.00355324
0.0047346
0.00610645
0.00732875
0.00861693
0.00983711
0.011061
0.0123575
0.0137475
0.015186
0.0167343
0.0183115
0.0199931
0.021678
0.0234534
0.0252015
0.0270168
0.0287708
0.0305596
0.0322521
0.0339392
0.0354974
0.0370051
0.0383562
0.0396105
0.0406886
0.0416265
0.0423778
0.042953
0.0433418
0.0435288
0.0435398
0.0433365
0.0429756
0.0424021
0.0416963
0.0407919
0.0397849
0.0386044
0.0373525
0.0359599
0.0345267
0.0329896
0.0314399
0.0298241
0.0282203
0.0265853
0.0249825
0.0233789
0.0218229
0.0202906
0.0188167
0.0173845
0.0160175
0.0147043
0.0134596
0.0122754
0.0111488
0.0100941
0.00903122
0.00791427
0.00685051
0.00564345
0.00458104
0.00342113
0.00246911
0.00159779
0.0009218
0.000515176
0.000187183
0.000144028
6.31838e-05
0.000123507
0.000117225
0.000101205
8.20063e-05
2.90264e-05
4.05552e-05
9.73945e-05
0.000160898
0.000230236
0.000263971
0.00135532
0.00148541
0.00175293
0.00208647
0.00253031
0.00285853
0.00310697
0.00313842
0.00287092
0.00251189
0.00186076
0.00133923
0.000733007
0.000429561
0.00034854
0.000566748
0.00123693
0.00200831
0.00321489
0.0043199
0.00568714
0.00687113
0.00815686
0.00931976
0.0105431
0.0117574
0.0131467
0.014495
0.0160425
0.0175267
0.0192076
0.0207979
0.0225725
0.0242255
0.02604
0.0276996
0.0294875
0.0310878
0.0327741
0.034244
0.0357509
0.03702
0.0382736
0.0392786
0.040216
0.0409065
0.0414814
0.0418249
0.0420119
0.0419964
0.0417932
0.0414272
0.040854
0.040166
0.0392621
0.0382963
0.0371163
0.0359277
0.0345358
0.0331855
0.0316491
0.0301985
0.0285834
0.0270904
0.0254562
0.0239715
0.0223687
0.0209333
0.0194018
0.0180473
0.0166158
0.0153635
0.0140509
0.0129137
0.01173
0.0106968
0.00964271
0.00863845
0.00752362
0.00647994
0.00527696
0.0042421
0.00308739
0.00221514
0.00134853
0.000791328
0.00038743
0.000159846
0.000117344
7.75676e-05
0.000137558
0.000124807
0.000108525
8.30795e-05
2.99938e-05
6.42638e-05
0.000120624
0.000212746
0.000281774
0.000325226
0.00127212
0.00139605
0.00166296
0.00201012
0.00245251
0.0028606
0.00310952
0.00326711
0.00300332
0.00272976
0.00208405
0.00152824
0.000926302
0.000460068
0.000379729
0.000380468
0.00104722
0.00164852
0.00284953
0.00387209
0.00523436
0.00637697
0.00766005
0.00876111
0.00998379
0.0111094
0.012498
0.0137488
0.0152956
0.0166794
0.0183593
0.0198475
0.0216212
0.0231715
0.0249851
0.0265428
0.0283298
0.0298304
0.0315159
0.0328904
0.0343966
0.035577
0.03683
0.0377561
0.038693
0.0393178
0.0398923
0.040187
0.0403739
0.0403298
0.0401267
0.0397552
0.0391822
0.0385136
0.0376101
0.0366887
0.0355094
0.0343891
0.0329979
0.0317372
0.0302016
0.0288579
0.0272437
0.0258704
0.024237
0.0228797
0.0212777
0.0199728
0.018442
0.0172164
0.0157857
0.0146573
0.0133454
0.0123242
0.0111411
0.0102088
0.00915522
0.00821433
0.00710177
0.00607978
0.00488122
0.0038761
0.00272701
0.00194089
0.00107936
0.00065044
0.000249486
0.000130326
8.85301e-05
9.30998e-05
0.00015273
0.000132994
0.000116429
8.42384e-05
3.10385e-05
8.98653e-05
0.000145709
0.000268734
0.000337428
0.000391371
0.00120036
0.00132214
0.00156694
0.00191521
0.00233628
0.00277182
0.00305834
0.00326758
0.00311571
0.00287983
0.00234274
0.00177655
0.00120365
0.00067407
0.000494458
0.00040688
0.000881315
0.00140882
0.00242712
0.0034074
0.0046493
0.00576625
0.00696835
0.0080404
0.00916924
0.0102599
0.011543
0.0127552
0.0141826
0.0155267
0.0170803
0.0185282
0.0201706
0.0216804
0.0233604
0.0248778
0.0265324
0.0279937
0.0295517
0.0308885
0.0322768
0.0334223
0.0345717
0.0354667
0.0363191
0.0369181
0.0374316
0.0377071
0.0378599
0.0378046
0.0375965
0.0372231
0.036675
0.0360141
0.0351646
0.0342609
0.033162
0.0320688
0.0307808
0.0295554
0.0281408
0.0268394
0.0253588
0.0240327
0.0225401
0.021233
0.019774
0.0185203
0.0171303
0.0159555
0.0146596
0.01358
0.0123944
0.0114188
0.0103464
0.0094538
0.0084979
0.00758663
0.00654151
0.00553624
0.00441334
0.00342826
0.00239306
0.00164732
0.000914585
0.000540064
0.00021682
0.000142235
0.000105877
0.000128323
0.000161508
0.000138707
0.000116621
8.15724e-05
6.25296e-05
0.000129984
0.000213477
0.00034236
0.000415198
0.000472443
0.00110168
0.00122328
0.00142506
0.0017717
0.00220686
0.0026392
0.00301977
0.00322799
0.00325903
0.00302725
0.0026506
0.00209208
0.00151999
0.000997753
0.000619015
0.000534076
0.000685894
0.00120973
0.00192496
0.00289839
0.00393192
0.00504318
0.00610147
0.00717177
0.00815096
0.00924094
0.010342
0.0115535
0.0127814
0.0141247
0.0154686
0.0169155
0.0183414
0.0198502
0.0213108
0.0228273
0.024265
0.0257254
0.0270752
0.0284112
0.0296069
0.0307516
0.0317316
0.032626
0.0333395
0.0339382
0.0343504
0.0346257
0.0347205
0.0346652
0.0344465
0.0340733
0.0335635
0.032903
0.0321396
0.0312363
0.0302677
0.0291751
0.0280556
0.0268309
0.0256154
0.0243147
0.023055
0.0217297
0.020471
0.0191646
0.017944
0.0166911
0.0155366
0.0143624
0.0132931
0.0122141
0.0112413
0.0102663
0.00938533
0.00849325
0.00768939
0.00677968
0.00585424
0.00485435
0.00386649
0.00288869
0.00204442
0.0013049
0.000786398
0.000414468
0.000236779
0.000161609
0.000157694
0.000178778
0.000172808
0.000149611
0.00010608
7.12802e-05
8.93515e-05
0.000155913
0.000300151
0.000427911
0.000520898
0.000577996
0.000931464
0.00105183
0.00123936
0.00158179
0.00207193
0.00250363
0.00309497
0.00330327
0.00355627
0.00333316
0.00304148
0.00249278
0.00178576
0.00126981
0.000565206
0.000478919
0.000281597
0.000798076
0.00128333
0.00224817
0.0031621
0.00426723
0.00518438
0.00625283
0.00702061
0.00810947
0.00900155
0.0102118
0.0112309
0.0125729
0.0137011
0.0151466
0.0163532
0.0178606
0.0191026
0.0206175
0.0218415
0.0233004
0.0244464
0.0257811
0.0267884
0.027932
0.0287452
0.0296387
0.0302136
0.0308116
0.0311198
0.0313948
0.0314262
0.0313709
0.031134
0.030761
0.0302808
0.0296209
0.0289352
0.0280329
0.0271877
0.0260963
0.025141
0.0239176
0.0229003
0.021601
0.0205651
0.0192411
0.0182229
0.0169179
0.0159454
0.0146939
0.0137872
0.0126143
0.0117856
0.0107078
0.00996288
0.00898895
0.00832869
0.00743759
0.00684623
0.00593818
0.00513891
0.00414464
0.00323025
0.00226085
0.0015534
0.000822588
0.000524526
0.000158086
0.000195467
0.00012089
0.000217295
0.00023682
0.0002088
0.000184486
7.98912e-05
4.50563e-05
8.58998e-05
0.00015442
0.000403162
0.000538605
0.000667954
0.000725467
0.000804851
0.000904996
0.00109159
0.00140518
0.00189169
0.00236005
0.00294805
0.00330409
0.00356348
0.00354241
0.00325819
0.00284896
0.00214946
0.00160029
0.000895812
0.000582548
0.000372672
0.000559531
0.00103049
0.00168596
0.00258787
0.00344996
0.00435625
0.00520939
0.00597399
0.00682999
0.00772146
0.00867981
0.00969821
0.0107706
0.0118979
0.0130607
0.0142665
0.015484
0.0167252
0.0179506
0.0191737
0.0203523
0.0214975
0.0225706
0.0235772
0.0244883
0.025301
0.0260012
0.0265757
0.0270289
0.0273369
0.027523
0.0275544
0.0274711
0.0272343
0.0268962
0.0264163
0.0258525
0.0251672
0.0244174
0.0235729
0.0226827
0.0217281
0.020745
0.0197284
0.0186974
0.0176622
0.0166234
0.0156058
0.0145921
0.0136204
0.0126571
0.011751
0.0108558
0.0100276
0.009211
0.00846663
0.00773347
0.00707367
0.00640092
0.00581609
0.00509673
0.00430922
0.00349958
0.00259577
0.00184065
0.00114569
0.000640684
0.000355158
0.00015295
0.000195231
0.000173499
0.000269567
0.000260375
0.000231234
0.000180219
7.47748e-05
8.09088e-05
0.000120738
0.000279368
0.00052559
0.000721495
0.000849765
0.000919703
0.000668129
0.000746439
0.000932751
0.00121446
0.00169706
0.00220501
0.00278941
0.00330497
0.00356502
0.00376754
0.0034892
0.00323358
0.00254296
0.00195716
0.0012603
0.000697031
0.000489439
0.00031253
0.000779742
0.00108932
0.0019848
0.00256911
0.00347118
0.00407984
0.00484381
0.00544837
0.00633916
0.00702548
0.00804311
0.00882429
0.00995083
0.0108083
0.0120131
0.0129177
0.0141579
0.0150708
0.016293
0.0171688
0.0183131
0.0191038
0.0201096
0.0207697
0.0215818
0.0220733
0.0226474
0.0229442
0.0232519
0.023342
0.0233734
0.0232599
0.0230233
0.0227227
0.0222432
0.0217831
0.0210984
0.0205132
0.0196694
0.0189965
0.0180427
0.017319
0.0163032
0.0155619
0.0145275
0.0137965
0.0127798
0.0120807
0.0111097
0.0104577
0.00955233
0.00895685
0.00812933
0.00759473
0.00685092
0.00637775
0.00571845
0.00528148
0.00469715
0.00419191
0.00340862
0.00281103
0.00191456
0.00139996
0.000711752
0.000456106
0.000174064
0.000152638
0.000194976
0.000231263
0.000326012
0.000285241
0.000255347
0.000174778
6.92498e-05
0.000119624
0.000158359
0.000414293
0.000657793
0.000919255
0.00104609
0.00112945
0.000561553
0.000636418
0.000803354
0.00107996
0.00149186
0.00200091
0.00254115
0.00308445
0.00345967
0.00370729
0.00367071
0.00345077
0.00300175
0.00241675
0.00180153
0.00119582
0.000802466
0.000553994
0.000636042
0.000867186
0.00135062
0.00186353
0.00246594
0.00301516
0.00356768
0.0041236
0.00476627
0.00539996
0.00613393
0.00685873
0.00767931
0.00847759
0.00936074
0.0102046
0.0111161
0.0119684
0.0128658
0.013683
0.0145191
0.0152551
0.0159826
0.0165941
0.0171708
0.017622
0.0180157
0.0182823
0.0184738
0.0185454
0.0185305
0.0184112
0.0182001
0.017907
0.0175222
0.0170823
0.0165553
0.0160021
0.0153694
0.0147387
0.0140379
0.0133645
0.0126307
0.0119455
0.0112096
0.0105382
0.00982484
0.0091866
0.00851398
0.00792218
0.00730238
0.0067648
0.00620438
0.00572424
0.0052254
0.00480242
0.00435442
0.00396297
0.00355319
0.00310012
0.00255148
0.00201137
0.00142575
0.000970269
0.000569326
0.000367431
0.000240733
0.000254861
0.000288101
0.000334509
0.00034932
0.000301554
0.000240839
0.000154358
0.000125611
0.000183633
0.000335859
0.000605033
0.000885756
0.00114865
0.00129553
0.00138061
0.000379608
0.00045421
0.000534298
0.000806662
0.00116014
0.00166412
0.00232214
0.00285982
0.00352102
0.00377127
0.00407538
0.00386609
0.00361938
0.00304888
0.00233554
0.0017411
0.000967995
0.000722235
0.000325078
0.000551879
0.0006178
0.00112502
0.00138417
0.00193153
0.00214807
0.0027035
0.00300182
0.00363494
0.0040021
0.00472627
0.00515558
0.00595316
0.00642909
0.00727221
0.00777123
0.00862281
0.00911513
0.00993157
0.0103842
0.0111196
0.0115005
0.0121115
0.0123936
0.0128444
0.0130094
0.0132757
0.0133159
0.0133874
0.0133065
0.0131873
0.0129988
0.0127059
0.0124309
0.0119914
0.011655
0.0111023
0.0107301
0.0101
0.00971577
0.00904293
0.00866634
0.00798175
0.00762748
0.00695666
0.00663432
0.00599664
0.00571125
0.00511998
0.00487295
0.00433584
0.00412581
0.00364609
0.00346992
0.00304732
0.00290019
0.00250908
0.0023944
0.0019432
0.00167954
0.00114607
0.00087397
0.000425862
0.000370442
0.000172195
0.00031635
0.000328827
0.000446061
0.000488652
0.000418806
0.000369071
0.000196066
0.000110692
8.04117e-05
0.00013994
0.000467743
0.000730886
0.00123771
0.00150095
0.00165505
0.00173966
0.000262028
0.000308347
0.0003884
0.000581297
0.000927956
0.00136371
0.00201834
0.0026053
0.00328423
0.00374761
0.0040757
0.00417185
0.00394512
0.00361675
0.00290774
0.00233975
0.00154368
0.00107189
0.000636807
0.000495804
0.000524497
0.000676931
0.0009091
0.00117433
0.00138673
0.00167756
0.00195603
0.00230242
0.00264863
0.00305708
0.00346407
0.0039244
0.0043771
0.00487156
0.00534707
0.00585111
0.00632037
0.00680483
0.00723569
0.00767
0.0080312
0.00838723
0.00865262
0.00890796
0.00905994
0.00920095
0.00923256
0.00925521
0.00917058