/*--------------------------------*- C++ -*----------------------------------*\
| =========                 |                                                 |
| \\      /  F ield         | OpenFOAM: The Open Source CFD Toolbox           |
|  \\    /   O peration     | Version:  v2106                                 |
|   \\  /    A nd           | Website:  www.openfoam.com                      |
|    \\/     M anipulation  |                                                 |
\*---------------------------------------------------------------------------*/
FoamFile
{
    version     2.0;
    format      ascii;
    arch        "LSB;label=32;scalar=64";
    class       volScalarField;
    location    "0";
    object      expGpCoeffs54;
}
// * * * * * * * * * * * * * * * * * * * * * * * * * * * * * * * * * * * * * //

dimensions      [0 0 0 0 0 0 0];

internalField   nonuniform List<scalar> 
8000
(
0.000299921
0.000328476
0.000368863
0.000412364
0.000440131
0.000454146
0.000455644
0.000447354
0.000434031
0.000415993
0.000394241
0.000368745
0.000339374
0.000306228
0.000271759
0.000236063
0.000203619
0.000174368
0.000151343
0.000134609
0.000124857
0.000122227
0.000125766
0.000135538
0.00014896
0.000166038
0.00018464
0.000204679
0.000225587
0.000247342
0.000269762
0.000292825
0.000316328
0.000340249
0.000364373
0.000388675
0.000412926
0.000437099
0.00046094
0.000484421
0.000507252
0.0005294
0.000550536
0.000570625
0.000589304
0.000606538
0.000621958
0.000635531
0.000646923
0.000656106
0.000662832
0.000667082
0.000668733
0.000667782
0.000664254
0.000658159
0.000649671
0.000638813
0.000625875
0.00061089
0.000594223
0.000575911
0.000556346
0.000535564
0.000513943
0.000491518
0.000468626
0.0004453
0.00042183
0.000398242
0.00037478
0.000351468
0.00032851
0.000305926
0.000284483
0.000264299
0.000248508
0.000237155
0.000234214
0.000239592
0.000254918
0.000279988
0.000314767
0.000359208
0.000411645
0.000472433
0.000538185
0.000609187
0.000683
0.000759414
0.000836608
0.000914273
0.000983923
0.00104489
0.00107888
0.0010788
0.00103885
0.000952826
0.000867187
0.000803802
0.000297621
0.000326171
0.000369936
0.000413451
0.000441373
0.000455428
0.000456164
0.000447888
0.000434309
0.000416273
0.000394595
0.0003691
0.000339678
0.00030653
0.000271711
0.000236006
0.000203195
0.000173932
0.000150788
0.000134046
0.000124286
0.000121652
0.00012534
0.00013511
0.0001488
0.000165875
0.000184564
0.000204601
0.000225527
0.000247279
0.00026972
0.000292779
0.000316305
0.000340222
0.000364369
0.000388668
0.000412943
0.000437113
0.000460981
0.000484459
0.000507321
0.000529466
0.000550636
0.000570722
0.000589437
0.000606669
0.000622123
0.000635694
0.000647114
0.000656296
0.000663039
0.000667289
0.000668945
0.000667994
0.000664456
0.000658363
0.000649852
0.000638995
0.000626026
0.000611043
0.000594339
0.00057603
0.000556427
0.000535648
0.000513992
0.000491569
0.000468647
0.000445324
0.000421827
0.000398242
0.000374758
0.000351449
0.000328471
0.00030589
0.000284326
0.000264145
0.00024795
0.000236599
0.000233418
0.000238802
0.000254126
0.000279207
0.000314012
0.000358473
0.000411119
0.000471933
0.000537948
0.000608976
0.000682879
0.000759321
0.000836721
0.000914412
0.000985267
0.00104621
0.00108256
0.00108237
0.00104212
0.000956053
0.000862069
0.000798698
0.000295138
0.000323681
0.000371095
0.000414624
0.000442715
0.000456813
0.000456725
0.000448465
0.00043461
0.000416575
0.000394977
0.000369484
0.000340006
0.000306856
0.000271659
0.000235943
0.000202737
0.000173461
0.000150189
0.000133438
0.000123669
0.000121031
0.000124879
0.000134647
0.000148626
0.000165699
0.000184483
0.000204517
0.000225462
0.000247211
0.000269674
0.00029273
0.000316279
0.000340193
0.000364365
0.00038866
0.000412962
0.000437129
0.000461026
0.000484501
0.000507395
0.000529537
0.000550744
0.000570827
0.00058958
0.00060681
0.000622301
0.000635869
0.00064732
0.000656501
0.000663264
0.000667513
0.000669174
0.000668223
0.000664675
0.000658582
0.000650047
0.000639192
0.000626188
0.000611207
0.000594464
0.000576157
0.000556514
0.000535738
0.000514044
0.000491625
0.000468669
0.00044535
0.000421824
0.000398243
0.000374733
0.000351428
0.000328428
0.000305851
0.000284156
0.000263978
0.000247347
0.000235998
0.000232559
0.000237949
0.000253271
0.000278363
0.000313197
0.00035768
0.000410551
0.000471394
0.000537692
0.000608749
0.000682748
0.00075922
0.000836843
0.000914563
0.000986718
0.00104764
0.00108653
0.00108623
0.00104565
0.000959539
0.000856543
0.000793187
0.000292457
0.000320992
0.000372346
0.000415891
0.000444163
0.000458308
0.000457332
0.000449087
0.000434935
0.000416902
0.00039539
0.000369899
0.00034036
0.000307208
0.000271604
0.000235876
0.000202242
0.000172952
0.000149541
0.000132782
0.000123003
0.000120361
0.000124381
0.000134147
0.000148438
0.000165509
0.000184394
0.000204426
0.000225392
0.000247138
0.000269624
0.000292677
0.000316251
0.000340162
0.00036436
0.000388652
0.000412982
0.000437145
0.000461075
0.000484545
0.000507475
0.000529615
0.00055086
0.00057094
0.000589735
0.000606962
0.000622492
0.000636059
0.000647543
0.000656722
0.000663506
0.000667754
0.000669421
0.00066847
0.000664911
0.000658819
0.000650258
0.000639404
0.000626363
0.000611385
0.000594599
0.000576295
0.000556609
0.000535836
0.000514101
0.000491686
0.000468694
0.000445378
0.000421821
0.000398243
0.000374707
0.000351405
0.000328383
0.000305808
0.000283973
0.000263797
0.000246696
0.00023535
0.000231632
0.000237027
0.000252348
0.000277452
0.000312317
0.000356824
0.000409938
0.000470811
0.000537416
0.000608503
0.000682607
0.000759112
0.000836974
0.000914726
0.000988284
0.00104919
0.00109082
0.0010904
0.00104946
0.000963302
0.000850575
0.000787235
0.000289562
0.000318089
0.000373697
0.000417554
0.000445728
0.000459923
0.000457987
0.000449759
0.000435286
0.000417254
0.000395836
0.000370346
0.000340742
0.000307587
0.000271543
0.000235803
0.000201709
0.000172403
0.000148842
0.000132074
0.000122284
0.000119637
0.000123843
0.000133607
0.000148236
0.000165303
0.000184299
0.000204327
0.000225316
0.000247059
0.000269571
0.00029262
0.000316222
0.000340129
0.000364355
0.000388643
0.000413004
0.000437163
0.000461127
0.000484594
0.000507562
0.000529698
0.000550986
0.000571063
0.000589902
0.000607126
0.0006227
0.000636264
0.000647783
0.000656961
0.000663768
0.000668015
0.000669688
0.000668737
0.000665166
0.000659075
0.000650486
0.000639633
0.000626553
0.000611577
0.000594745
0.000576444
0.000556711
0.000535941
0.000514163
0.000491751
0.00046872
0.000445408
0.000421817
0.000398243
0.000374679
0.00035138
0.000328333
0.000305763
0.000283775
0.000263603
0.000245993
0.00023465
0.00023063
0.000236032
0.000251351
0.000276468
0.000311366
0.000355899
0.000409275
0.000470182
0.000537118
0.000608238
0.000682454
0.000758995
0.000837117
0.000914902
0.000989976
0.00105086
0.00109545
0.00109491
0.00105423
0.000967366
0.000844131
0.000780808
0.000288269
0.000317019
0.000376266
0.000421167
0.000448158
0.000463416
0.000459114
0.000451563
0.000435736
0.000417905
0.000396494
0.000371275
0.000341447
0.000308642
0.000271586
0.000235867
0.000201132
0.00017181
0.000148087
0.000131309
0.000121507
0.000118855
0.000123263
0.000133024
0.000148729
0.000165941
0.000185043
0.000205237
0.000226247
0.00024817
0.000270706
0.000293945
0.000317573
0.000341676
0.00036593
0.000390416
0.000414807
0.00043916
0.000463156
0.000486808
0.00050981
0.000532119
0.000553445
0.000573666
0.000592546
0.000609889
0.000625501
0.000639145
0.000650702
0.000659912
0.000666741
0.000670995
0.00067267
0.000671678
0.000668097
0.000661922
0.000653308
0.000642343
0.000629227
0.000614103
0.000597228
0.000578769
0.000558988
0.000538039
0.000516221
0.000493616
0.00047055
0.000447047
0.000423424
0.000399659
0.000376068
0.000352586
0.000329515
0.000306772
0.000284637
0.00026431
0.000245234
0.000233894
0.000229548
0.000234957
0.000250274
0.000275406
0.00031034
0.0003549
0.000408795
0.000469705
0.000538071
0.000608619
0.000683307
0.000759329
0.000837942
0.000915285
0.000994525
0.00105375
0.00110462
0.00110146
0.00106347
0.000974023
0.000842073
0.000778208
0.000290782
0.000320034
0.000379288
0.00042507
0.00045215
0.000467949
0.000463789
0.000456493
0.000440819
0.000423213
0.000401949
0.000377026
0.000347339
0.000314751
0.000277833
0.000242034
0.000207138
0.000177053
0.000153464
0.000135866
0.000126342
0.000123545
0.000128597
0.000139301
0.000155849
0.000174581
0.000193679
0.000215618
0.000236624
0.000260434
0.000282966
0.000308203
0.000331826
0.000357997
0.000382247
0.00040882
0.000433206
0.000459608
0.000483599
0.000509194
0.000532192
0.000556269
0.000577591
0.000599335
0.000618211
0.000636764
0.000652373
0.000666857
0.000678412
0.000688052
0.00069488
0.000699134
0.000700808
0.00069939
0.00069581
0.000688806
0.000680194
0.000668043
0.00065493
0.00063832
0.000621448
0.00060127
0.000581493
0.00055866
0.000536846
0.000512257
0.000489196
0.000463672
0.000440054
0.000414288
0.000390701
0.000365284
0.000342218
0.000317646
0.000295515
0.000273563
0.00025339
0.00024104
0.000235822
0.000241592
0.000256524
0.000283077
0.000317792
0.000364183
0.000418334
0.000480687
0.000548812
0.000620651
0.000695056
0.000772029
0.000850316
0.0009281
0.00100698
0.00106579
0.00111632
0.00111165
0.00107344
0.000981719
0.000849749
0.000784654
0.000293496
0.00032329
0.000382552
0.000429283
0.00045646
0.000472843
0.000468837
0.000461817
0.000446308
0.000428946
0.00040784
0.000383236
0.000353702
0.000321347
0.000284578
0.000248693
0.000213932
0.000183465
0.000159982
0.000142084
0.000132627
0.000130114
0.000135192
0.000146992
0.000163537
0.00018391
0.000203005
0.000226827
0.000247829
0.000273677
0.000296205
0.0003236
0.000347218
0.000375622
0.000399867
0.000428694
0.000453075
0.000481688
0.000505674
0.000533368
0.00055636
0.000582348
0.000603665
0.000627052
0.000645925
0.000665784
0.00068139
0.000696781
0.000708334
0.000718439
0.000725265
0.000729519
0.000731193
0.000729314
0.000725734
0.000717837
0.000709226
0.000695795
0.000682684
0.000664471
0.000647602
0.000625568
0.000605794
0.000580927
0.000559117
0.000532387
0.00050933
0.000481626
0.000458012
0.000430085
0.000406503
0.000378997
0.000355935
0.000329388
0.000307262
0.000283555
0.000263385
0.000249871
0.000244617
0.000250217
0.000265057
0.000292374
0.000326938
0.000374692
0.000428635
0.000492545
0.000560411
0.000633643
0.000707744
0.000785743
0.000863678
0.000941938
0.00102043
0.0010788
0.00112896
0.00112266
0.0010842
0.00099003
0.000858038
0.000791614
0.000296427
0.000326806
0.000386076
0.000433834
0.000461115
0.000478128
0.000474289
0.000467566
0.000452235
0.000435136
0.0004142
0.000389942
0.000360573
0.00032847
0.000291861
0.000255884
0.000221268
0.000190389
0.00016702
0.000148798
0.000139414
0.000137207
0.000142314
0.000155298
0.000171839
0.000193985
0.000213075
0.000238931
0.000259929
0.000287978
0.000310501
0.000340226
0.000363839
0.000394654
0.000418894
0.000450154
0.00047453
0.000505531
0.000529512
0.000559471
0.000582459
0.000610508
0.000631821
0.000656983
0.000675852
0.000697121
0.000712724
0.000729095
0.000740645
0.000751252
0.000758076
0.000762331
0.000764004
0.000761627
0.000758048
0.000749185
0.000740576
0.000725762
0.000712654
0.000692709
0.000675844
0.000651805
0.000632036
0.000604971
0.000583167
0.000554124
0.000531072
0.000501012
0.000477404
0.000447143
0.000423566
0.000393804
0.000370748
0.000342068
0.000319947
0.000294345
0.000274179
0.000259407
0.000254115
0.000259531
0.000274271
0.000302414
0.000336815
0.000386041
0.000439758
0.000505351
0.000572936
0.000647673
0.000721444
0.000800551
0.000878106
0.000956881
0.00103495
0.00109285
0.0011426
0.00113455
0.00109583
0.000999005
0.000866988
0.00079913
0.000299591
0.000330602
0.000389881
0.000438747
0.000466141
0.000483835
0.000480176
0.000473773
0.000458636
0.00044182
0.000421069
0.000397184
0.000367992
0.000336162
0.000299726
0.000263648
0.00022919
0.000197866
0.000174621
0.000156048
0.000146743
0.000144867
0.000150004
0.000164266
0.000180804
0.000204863
0.000223949
0.000252002
0.000272995
0.00030342
0.000325938
0.000358179
0.000381787
0.000415205
0.000439439
0.000473328
0.000497698
0.000531277
0.000555253
0.000587659
0.000610641
0.000640917
0.000662224
0.000689304
0.000708168
0.000730961
0.00074656
0.000763989
0.000775536
0.000786684
0.000793507
0.000797762
0.000799435
0.00079652
0.000792942
0.000783036
0.000774429
0.000758122
0.000745017
0.000723202
0.000706341
0.000680138
0.000660374
0.000630936
0.000609137
0.000577597
0.00055455
0.000521946
0.000498344
0.000465563
0.000441991
0.000409794
0.000386743
0.00035576
0.000333644
0.000305996
0.000285834
0.000269705
0.000264371
0.000269589
0.00028422
0.000313255
0.00034748
0.000398295
0.000451769
0.000519179
0.000586461
0.000662823
0.000736238
0.000816542
0.000893687
0.000973017
0.00105063
0.00110802
0.00115733
0.00114738
0.00110839
0.0010087
0.000876653
0.000807245
0.000303008
0.000334702
0.00039399
0.000444053
0.000471569
0.000489997
0.000486533
0.000480477
0.000465548
0.000449038
0.000428486
0.000405003
0.000376004
0.000344468
0.000308219
0.000272033
0.000237745
0.00020594
0.000182828
0.000163877
0.000154656
0.000153138
0.000158309
0.00017395
0.000190484
0.00021661
0.000235691
0.000266117
0.000287104
0.000320096
0.000342607
0.000377566
0.000401168
0.000437398
0.000461625
0.000498352
0.000522715
0.000559079
0.000583049
0.000618097
0.000641073
0.000673753
0.000695056
0.000724205
0.000743065
0.000767502
0.000783097
0.000801668
0.000813212
0.000824945
0.000831767
0.000836022
0.000837694
0.000834199
0.000830622
0.000819589
0.000810985
0.000793066
0.000779964
0.00075613
0.000739273
0.000710732
0.000690973
0.000658973
0.00063718
0.000602943
0.000579902
0.000544552
0.000520956
0.000485454
0.000461888
0.00042706
0.000404015
0.000370546
0.000348435
0.000318577
0.00029842
0.000280824
0.000275446
0.00028045
0.000294965
0.000324961
0.000358997
0.000411528
0.000464739
0.000534111
0.000601066
0.000679182
0.000752213
0.00083381
0.000910512
0.000990441
0.00106756
0.0011244
0.00117325
0.00116124
0.00112194
0.00101916
0.00088709
0.000816009
0.000306698
0.000339129
0.000398428
0.000449782
0.00047743
0.000496652
0.000493397
0.000487715
0.000473011
0.000456832
0.000436495
0.000413447
0.000384656
0.000353437
0.00031739
0.000281087
0.000246982
0.000214659
0.00019169
0.000172331
0.000163202
0.00016207
0.000167276
0.000184408
0.000200938
0.000229295
0.000248371
0.000281358
0.00030234
0.000338103
0.000360608
0.000398501
0.000422096
0.000461362
0.000485583
0.000525373
0.00054973
0.000589101
0.000613064
0.000650965
0.000673935
0.000709211
0.000730508
0.000761893
0.000780747
0.00080696
0.000822551
0.000842356
0.000853897
0.000866262
0.000873081
0.000877336
0.000879008
0.000874887
0.000871311
0.000859061
0.000850459
0.000830799
0.000817701
0.000791686
0.000774834
0.00074377
0.000724016
0.000689249
0.000667462
0.000630313
0.000607279
0.000568963
0.000545373
0.000506932
0.000483373
0.000445705
0.000422666
0.000386511
0.000364407
0.000332163
0.000312011
0.000292832
0.000287405
0.000292177
0.000306567
0.000337603
0.000371433
0.000425818
0.000478745
0.000550235
0.000616837
0.000696848
0.000769464
0.000852456
0.00092868
0.00100926
0.00108585
0.00114209
0.00119043
0.00117621
0.00113658
0.00103046
0.00089836
0.000825473
0.000315694
0.000348461
0.000406669
0.000457742
0.000486696
0.000505619
0.000503783
0.000497888
0.000483614
0.000467657
0.000448015
0.000425189
0.000397264
0.000366094
0.000330347
0.000294078
0.000259356
0.000227182
0.000203179
0.000184143
0.000174337
0.000173953
0.000179805
0.000198144
0.000217252
0.000247154
0.000268004
0.000302764
0.000325786
0.000363467
0.000388154
0.000428077
0.000453955
0.000495322
0.000521876
0.000563787
0.000590464
0.000631915
0.000658114
0.000697989
0.000723037
0.000760103
0.000783236
0.000816168
0.000836541
0.000863978
0.000880702
0.000901361
0.000913592
0.000926401
0.000933448
0.000937696
0.000939126
0.00093457
0.000930289
0.000917202
0.000907475
0.00088661
0.000872024
0.000844506
0.000825869
0.000793053
0.000771294
0.000734612
0.000710663
0.000671504
0.000646227
0.000605858
0.000580014
0.000539541
0.000513773
0.000474139
0.000448987
0.000410975
0.000387017
0.000353121
0.000329951
0.000309495
0.000303394
0.000307406
0.000322914
0.000353894
0.000389712
0.000444727
0.000499808
0.000572666
0.000640569
0.000722301
0.000794878
0.000879113
0.000954771
0.0010359
0.00111167
0.0011687
0.00121305
0.00119937
0.00115603
0.00105041
0.000921303
0.000847587
0.000330917
0.000363691
0.000415765
0.000466957
0.000497987
0.00051725
0.000518723
0.000513321
0.000500519
0.000485071
0.000466131
0.000443791
0.000416869
0.00038618
0.000351542
0.000315746
0.000281191
0.000249424
0.000224626
0.000205877
0.000196058
0.00019583
0.000203487
0.000221851
0.000244608
0.000274501
0.000300717
0.000335466
0.000364658
0.000402326
0.000433612
0.000473522
0.000506303
0.000547657
0.000581262
0.00062316
0.000656851
0.000698289
0.000731249
0.000771111
0.000802433
0.000839488
0.000868167
0.000901088
0.000926047
0.000953475
0.000973622
0.000994274
0.00100861
0.00102141
0.00102915
0.0010334
0.00103409
0.00102953
0.00102313
0.00101004
0.000996927
0.000976068
0.000956991
0.000929482
0.000905455
0.000872649
0.000844818
0.000808148
0.000777667
0.000738521
0.000706472
0.000666115
0.000633457
0.000592997
0.000560552
0.00052093
0.000489388
0.000451387
0.000421823
0.000387938
0.000361175
0.000340686
0.000333084
0.000336882
0.000353346
0.000383924
0.000423061
0.000477468
0.000536668
0.000608728
0.000680658
0.000761443
0.000837647
0.000920789
0.000998335
0.00107823
0.00115102
0.00120685
0.00124193
0.00122743
0.00117829
0.00107238
0.000958273
0.00088454
0.000346455
0.000379237
0.000427848
0.000479153
0.00051135
0.000530954
0.000534856
0.000529985
0.000518773
0.000503876
0.000485693
0.000463878
0.00043804
0.000407871
0.000374429
0.000339143
0.00030477
0.000273442
0.000247785
0.000229346
0.000219512
0.000219454
0.000229061
0.00024745
0.000274149
0.000304031
0.000336042
0.000370779
0.000406633
0.000444288
0.000482698
0.000522594
0.00056283
0.000604169
0.00064539
0.000687274
0.000728539
0.000769962
0.000810223
0.000850071
0.000888169
0.000925211
0.000959879
0.000992788
0.0010227
0.00105012
0.00107396
0.0010946
0.00111121
0.00112401
0.00113249
0.00113674
0.00113663
0.00113207
0.00112338
0.0011103
0.00109352
0.00107267
0.00104874
0.00102124
0.000991394
0.0009586
0.000924211
0.000887554
0.000850021
0.000810889
0.000771526
0.000731183
0.000691167
0.000650721
0.000611065
0.000571457
0.000533014
0.000495026
0.000459407
0.000425535
0.000394891
0.000374367
0.000365145
0.000368712
0.000386208
0.000416351
0.000459074
0.000512824
0.00057647
0.00064767
0.000723947
0.00080371
0.000883829
0.000965793
0.00104538
0.00112394
0.00119352
0.00124804
0.0012764
0.00126108
0.00120887
0.0011027
0.00099617
0.000922415
0.000348739
0.000381511
0.000445012
0.000496544
0.000532482
0.000552713
0.000555511
0.000551317
0.000539749
0.000525486
0.000508579
0.00048738
0.000462887
0.000433331
0.000399535
0.000364809
0.000328376
0.000297483
0.000269604
0.00025145
0.000240909
0.000241
0.000253376
0.000271789
0.00030462
0.000334491
0.0003735
0.000408223
0.000451417
0.000489058
0.000535337
0.000575218
0.000623702
0.000665026
0.000714693
0.00075656
0.00080625
0.000847658
0.000896076
0.000935909
0.00098162
0.00101865
0.0010601
0.00109299
0.00112856
0.00115597
0.00118408
0.00120472
0.00122399
0.00123678
0.00124618
0.00125043
0.00124945
0.00124489
0.0012336
0.00122052
0.00119957
0.00117873
0.00114927
0.00112178
0.00108532
0.00105254
0.00101074
0.000974095
0.000928638
0.00088952
0.000841983
0.000801656
0.000753455
0.000713025
0.00066538
0.000625788
0.000579726
0.000541753
0.000498625
0.000464765
0.00042721
0.000406653
0.000394374
0.000397739
0.000416667
0.000446419
0.00049354
0.000546673
0.000616755
0.00068709
0.000769986
0.000848663
0.000933821
0.00101451
0.00109797
0.00117503
0.00124927
0.00130207
0.00133356
0.00131662
0.00125419
0.00114742
0.00100445
0.000930708
0.000351356
0.000384213
0.000462538
0.000515133
0.000555192
0.000575923
0.000577838
0.000574381
0.000562516
0.00054894
0.000533425
0.000512896
0.000489841
0.00046095
0.000426684
0.000392564
0.000353568
0.000323144
0.000292502
0.000274654
0.000263096
0.000263347
0.000279017
0.000297454
0.000337447
0.000367306
0.000413911
0.00044862
0.000499747
0.000537373
0.000592158
0.000632023
0.000689426
0.000730733
0.000789531
0.000831382
0.000890183
0.000931574
0.000988813
0.00102863
0.00108258
0.00111959
0.00116838
0.00120126
0.00124296
0.00127035
0.00130309
0.00132372
0.00134587
0.00135866
0.00136906
0.00137331
0.00137138
0.00136684
0.00135273
0.00133966
0.00131418
0.00129335
0.00125791
0.00123043
0.00118681
0.00115404
0.00110422
0.00106759
0.00101356
0.000974455
0.000918077
0.000877766
0.000820715
0.000780301
0.00072402
0.000684443
0.000630147
0.000592189
0.0005409
0.000507054
0.000461345
0.000440753
0.000424688
0.000427834
0.000448528
0.00047786
0.000530056
0.000582527
0.000659989
0.000729392
0.000819658
0.000897162
0.000987813
0.00106712
0.00115492
0.00123037
0.00130956
0.00136049
0.00139413
0.00137623
0.00130179
0.00119266
0.00101393
0.000939988
0.000363738
0.000399119
0.0004775
0.000534809
0.000575329
0.000599451
0.000602114
0.000600528
0.000589251
0.00057704
0.000562374
0.00054346
0.000521222
0.000493988
0.000460236
0.000427051
0.000388198
0.000357777
0.000327204
0.000309554
0.000298287
0.000301024
0.000317974
0.000342737
0.00038502
0.000424476
0.000471652
0.00051727
0.000568992
0.000618377
0.000673801
0.000726029
0.000784102
0.000838068
0.000897552
0.000951995
0.00101148
0.001065
0.0011229
0.00117397
0.00122853
0.00127551
0.00132485
0.00136603
0.00140819
0.00144192
0.001475
0.00149977
0.00152214
0.00153674
0.00154721
0.00155092
0.00154893
0.00154158
0.00152726
0.00150929
0.00148347
0.00145588
0.00141999
0.00138415
0.00133999
0.00129759
0.00124716
0.00119992
0.00114524
0.00109485
0.00103781
0.000985845
0.000928129
0.00087599
0.000819061
0.000767965
0.00071305
0.000664031
0.000612128
0.000568264
0.000519789
0.000492763
0.000475108
0.000476922
0.000497262
0.000529511
0.000581743
0.000639458
0.000717208
0.000792189
0.000882358
0.000964247
0.00105402
0.00113569
0.0012223
0.0012973
0.00137531
0.00142173
0.00145337
0.001426
0.00135043
0.00122948
0.0010506
0.000970702
0.000377109
0.000415216
0.000493655
0.000556056
0.000597074
0.000624859
0.000628342
0.00062877
0.000618394
0.00060767
0.000593879
0.00057673
0.000555352
0.000529902
0.000497001
0.000464838
0.00042677
0.000396526
0.000366585
0.000349649
0.000338803
0.000345208
0.000362332
0.000395141
0.000437406
0.000488031
0.000535185
0.000593497
0.000645195
0.000708263
0.000763661
0.000830277
0.000888322
0.000957021
0.00101648
0.00108558
0.00114503
0.00121266
0.00127054
0.00133469
0.00138923
0.00144781
0.00149712
0.00154797
0.0015901
0.00163121
0.00166427
0.00169385
0.00171622
0.00173292
0.00174339
0.00174648
0.00174449
0.00173388
0.00171956
0.0016959
0.00167009
0.00163463
0.00159875
0.0015532
0.00150906
0.00145544
0.00140504
0.00134544
0.00129079
0.00122726
0.00117025
0.00110472
0.00104703
0.000981249
0.000924347
0.000859846
0.000804957
0.000743064
0.000691186
0.000635663
0.000587209
0.00055201
0.000534121
0.000533643
0.000553391
0.000588668
0.000639952
0.000703822
0.000780271
0.000862156
0.000950729
0.00103826
0.00112621
0.00121109
0.00129568
0.0013705
0.00144632
0.00148771
0.00151734
0.00147974
0.00140295
0.00126924
0.00109021
0.00100387
0.000391548
0.000432597
0.000511101
0.000579
0.000620556
0.000652294
0.000656663
0.000659267
0.000649864
0.000640746
0.0006279
0.000612656
0.000592206
0.000568682
0.000536701
0.000505643
0.000468422
0.000438367
0.000409109
0.000392944
0.000382554
0.000392921
0.000410231
0.000451728
0.000493975
0.000556661
0.000603791
0.00067581
0.000727482
0.000805326
0.000860696
0.000942849
0.00100086
0.00108547
0.0011449
0.00122982
0.00128925
0.00137212
0.00142996
0.00150825
0.00156276
0.00163386
0.00168314
0.00174443
0.00178654
0.00183561
0.00186866
0.00190344
0.00192579
0.00194477
0.00195524
0.00195765
0.00195566
0.00194153
0.00192723
0.0018974
0.00187161
0.00182765
0.00179179
0.00173575
0.00169163
0.0016259
0.00157553
0.00150258
0.00144796
0.00137025
0.00131326
0.00123309
0.00117543
0.00109491
0.00103804
0.000959063
0.000904202
0.000828408
0.000776556
0.000708444
0.000660011
0.000615987
0.000597846
0.000594893
0.000614001
0.000652548
0.000702807
0.000773325
0.000848368
0.000937708
0.00102456
0.00111818
0.00120417
0.00129251
0.00137491
0.00144953
0.00152299
0.00155897
0.00158642
0.00153778
0.00145967
0.00131217
0.00113298
0.00103968
0.000418048
0.000459983
0.00052933
0.000598438
0.000644148
0.000677874
0.000688341
0.000692392
0.000686213
0.000678418
0.000667218
0.000653375
0.000634762
0.000612617
0.000583408
0.000553478
0.000519229
0.000490091
0.000463305
0.000448394
0.000441242
0.000454128
0.000476965
0.000522472
0.000573858
0.000641229
0.00069952
0.000776863
0.000841273
0.000924855
0.000993726
0.00108191
0.00115385
0.00124464
0.001318
0.00140907
0.00148199
0.00157078
0.00164121
0.00172498
0.00179071
0.00186666
0.00192539
0.00199073
0.0020402
0.00209236
0.00213046
0.00216725
0.00219224
0.00221211
0.00222281
0.00222496
0.0022209
0.0022054
0.00218687
0.00215466
0.0021227
0.00207543
0.00203169
0.00197158
0.0019181
0.00184766
0.00178671
0.00170858
0.00164244
0.00155922
0.00149004
0.00140419
0.00133397
0.00124773
0.00117823
0.00109363
0.00102637
0.000945175
0.000882156
0.000809156
0.000751614
0.000703509
0.000680947
0.000675955
0.000694834
0.000733531
0.00078661
0.000858598
0.000936919
0.00102808
0.00111722
0.00121204
0.00129872
0.00138704
0.00146687
0.00153983
0.00160424
0.00163655
0.0016475
0.00159325
0.00150467
0.00135385
0.00119782
0.00110242
0.000441445
0.000483385
0.000554178
0.000623568
0.000674657
0.000709238
0.000724895
0.000730154
0.000727443
0.000720903
0.000711856
0.000699227
0.000683287
0.000662352
0.000636913
0.000608192
0.000578186
0.000550153
0.000527615
0.000513557
0.00051265
0.000526038
0.000558804
0.000604386
0.000670387
0.000737717
0.000815486
0.000892782
0.000978898
0.00106243
0.00115434
0.00124247
0.00133819
0.00142892
0.00152612
0.00161713
0.00171316
0.00180189
0.00189389
0.00197762
0.00206261
0.00213851
0.0022135
0.0022788
0.00234096
0.00239309
0.00243993
0.0024767
0.00250629
0.00252615
0.00253729
0.00253944
0.00253182
0.00251633
0.00249052
0.00245833
0.00241573
0.00236849
0.00231116
0.00225108
0.0021815
0.0021111
0.00203199
0.00195391
0.00186801
0.00178484
0.0016948
0.00160899
0.0015173
0.00143112
0.00134005
0.0012555
0.00116709
0.00108594
0.00100325
0.000930291
0.000858253
0.000810043
0.000779417
0.000773732
0.000791375
0.000828813
0.000886572
0.000956744
0.00104182
0.0011307
0.00122606
0.0013183
0.00140863
0.00149413
0.00157248
0.00164241
0.00169738
0.00172679
0.00172279
0.00166654
0.0015642
0.00141273
0.00125337
0.00115796
0.000444673
0.000486898
0.000585237
0.000656441
0.000716962
0.000752954
0.000769393
0.000776222
0.00077357
0.000768433
0.000762021
0.00075076
0.000738675
0.00071918
0.000696444
0.000669066
0.000639681
0.000612802
0.000590241
0.000577022
0.000578533
0.000592393
0.000637322
0.000682974
0.000770844
0.000838183
0.000938766
0.00101607
0.00112603
0.00120957
0.00132687
0.00141501
0.00153703
0.00162777
0.00175141
0.00184243
0.00196417
0.00205291
0.00216902
0.00225274
0.00235935
0.00243526
0.0025286
0.00259389
0.00267047
0.00272259
0.00277944
0.0028162
0.00285112
0.00287096
0.00288269
0.00288484
0.00287322
0.00285773
0.00282367
0.00279147
0.0027368
0.00268956
0.00261685
0.00255677
0.00246904
0.00239865
0.00229915
0.00222108
0.00211311
0.00202993
0.00191668
0.00183087
0.00171538
0.00162919
0.0015143
0.00142975
0.00131803
0.00123688
0.00113058
0.00105762
0.000961344
0.000913035
0.000869852
0.000863519
0.000883014
0.000919241
0.000985953
0.00105431
0.00115206
0.00123855
0.00134511
0.00143438
0.00153056
0.00161292
0.00169331
0.00175978
0.00181549
0.00184121
0.00183086
0.00177143
0.00164322
0.00148779
0.00126377
0.00116773
0.000465481
0.000512213
0.000610639
0.000691214
0.00075256
0.000797111
0.000814992
0.000827926
0.00082687
0.00082605
0.000821269
0.000814057
0.000803577
0.000788632
0.000767444
0.000745181
0.000717189
0.000695912
0.000674671
0.000668879
0.000671636
0.000698122
0.000744846
0.000811457
0.000901483
0.000996994
0.00109751
0.00120644
0.00131632
0.00143378
0.001551
0.00167449
0.00179643
0.00192286
0.00204641
0.00217227
0.00229393
0.00241546
0.00253148
0.00264477
0.00275131
0.00285255
0.00294582
0.00303146
0.00310798
0.00317494
0.00323174
0.0032776
0.00331249
0.0033357
0.00334743
0.00334745
0.00333584
0.0033131
0.00327906
0.00323492
0.00318029
0.00311687
0.00304421
0.00296418
0.00287651
0.00278284
0.00268341
0.0025792
0.0024713
0.00235965
0.00224648
0.00213044
0.00201503
0.00189753
0.00178272
0.0016665
0.00155486
0.00144245
0.00133623
0.00123406
0.0011347
0.00106527
0.0010197
0.00100477
0.00102267
0.00106054
0.00112546
0.00120045
0.00129616
0.00138923
0.00149293
0.0015851
0.00167779
0.00175706
0.00183369
0.00189004
0.00194187
0.00194975
0.00193603
0.00185382
0.00172371
0.00154648
0.00132225
0.00121641
0.000487951
0.000539549
0.000638052
0.000728764
0.000791001
0.000844795
0.000864233
0.000883758
0.000884496
0.000888311
0.000885321
0.000882408
0.000873712
0.000863629
0.000844242
0.000827536
0.000801274
0.000786453
0.000766694
0.000769814
0.000773626
0.000815072
0.000862241
0.000952588
0.00104255
0.00116849
0.00126892
0.00141201
0.00152181
0.0016759
0.00179303
0.00195468
0.00207653
0.0022415
0.00236496
0.00252846
0.00265003
0.00280695
0.00292289
0.0030681
0.00317455
0.00330316
0.00339636
0.00350396
0.00358043
0.00366339
0.00372016
0.00377583
0.00381069
0.00383755
0.00384926
0.003847
0.0038354
0.00380483
0.00377081
0.00371377
0.00365918
0.0035783
0.0035057
0.00340411
0.00331651
0.0031977
0.00309835
0.00296591
0.0028581
0.0027157
0.00260261
0.00245393
0.00233861
0.00218729
0.00207256
0.00192215
0.00181059
0.00166444
0.00155829
0.00142459
0.00132529
0.00123199
0.00118577
0.00116024
0.00117651
0.00121532
0.00127776
0.00135969
0.00145216
0.00155261
0.00165257
0.00174811
0.00183677
0.00191294
0.00198534
0.00203076
0.00207834
0.00206696
0.00204959
0.00194279
0.00181062
0.00160973
0.00138541
0.00126898
0.000535345