/*--------------------------------*- C++ -*----------------------------------*\
| =========                 |                                                 |
| \\      /  F ield         | OpenFOAM: The Open Source CFD Toolbox           |
|  \\    /   O peration     | Version:  v2106                                 |
|   \\  /    A nd           | Website:  www.openfoam.com                      |
|    \\/     M anipulation  |                                                 |
\*---------------------------------------------------------------------------*/
FoamFile
{
    version     2.0;
    format      ascii;
    arch        "LSB;label=32;scalar=64";
    class       volScalarField;
    location    "0";
    object      expGpCoeffs51;
}
// * * * * * * * * * * * * * * * * * * * * * * * * * * * * * * * * * * * * * //

dimensions      [0 0 0 0 0 0 0];

internalField   nonuniform List<scalar> 
8000
(
6.93155e-05
9.70207e-05
0.000179252
0.000334705
0.000626513
0.00104763
0.00155967
0.00214067
0.00260617
0.00295073
0.00305873
0.00292853
0.00262675
0.00216519
0.00168976
0.00120787
0.000814235
0.000506936
0.000287757
0.000155905
7.07167e-05
3.25115e-05
1.00734e-05
3.5477e-06
-1.31909e-06
-4.91231e-06
-1.40798e-05
-2.92707e-05
-5.38585e-05
-8.79524e-05
-0.000130213
-0.000180287
-0.000232049
-0.000284796
-0.000330106
-0.000367243
-0.000389501
-0.000396474
-0.000386642
-0.000360153
-0.000321638
-0.000271743
-0.000219031
-0.00016432
-0.000115765
-7.39455e-05
-4.24951e-05
-2.1467e-05
-8.39987e-06
-2.83704e-06
1.90155e-06
6.47788e-06
1.75143e-05
3.54582e-05
6.26617e-05
9.90638e-05
0.000141043
0.000188032
0.000232227
0.00027286
0.00030219
0.000319665
0.000321853
0.000308722
0.000282977
0.000245114
0.000202417
0.000155634
0.00011264
7.4033e-05
4.41456e-05
2.31268e-05
9.72453e-06
3.59116e-06
-1.16828e-06
-5.19257e-06
-1.77859e-05
-3.91033e-05
-8.67808e-05
-0.00016029
-0.000292325
-0.000482122
-0.000762954
-0.0011352
-0.00158182
-0.00210421
-0.00259932
-0.00305955
-0.00334579
-0.00344728
-0.00330709
-0.00292732
-0.00242444
-0.00180278
-0.00124825
-0.000782547
-0.00045109
-0.000264227
-0.000161824
-0.000124263
6.70845e-05
9.47838e-05
0.000171208
0.000326549
0.000612984
0.00103383
0.0015595
0.00214075
0.00262411
0.00296937
0.00307821
0.00294852
0.00263406
0.00217255
0.00168478
0.00120266
0.000805813
0.00049831
0.00028237
0.000150447
6.86422e-05
3.04257e-05
9.6035e-06
3.07806e-06
-1.08626e-06
-4.67902e-06
-1.33783e-05
-2.85672e-05
-5.30383e-05
-8.71279e-05
-0.000129749
-0.000179817
-0.000232304
-0.000285043
-0.000331117
-0.000368248
-0.000390927
-0.000397899
-0.000387915
-0.000361429
-0.000322248
-0.00027236
-0.000218802
-0.000164098
-0.000114948
-7.31337e-05
-4.1631e-05
-2.06056e-05
-8.0147e-06
-2.45258e-06
1.59661e-06
6.17235e-06
1.67424e-05
3.4684e-05
6.19481e-05
9.83456e-05
0.000140908
0.000187891
0.00023288
0.000273508
0.000303409
0.000320881
0.000323104
0.000309974
0.000283718
0.00024586
0.00020239
0.000155614
0.000112002
7.33996e-05
4.33612e-05
2.23451e-05
9.30632e-06
3.17374e-06
-9.20855e-07
-4.94463e-06
-1.6639e-05
-3.7955e-05
-8.37222e-05
-0.000157247
-0.000286032
-0.000475912
-0.000754644
-0.00112709
-0.00157833
-0.00210092
-0.00260839
-0.00306851
-0.0033663
-0.00346725
-0.0033257
-0.00294523
-0.00242493
-0.00180299
-0.00123429
-0.000768859
-0.000441976
-0.000255239
-0.000158791
-0.000121238
6.46754e-05
9.23683e-05
0.000162523
0.000317743
0.000598376
0.00101892
0.00155932
0.00214084
0.00264348
0.00298949
0.00309926
0.00297011
0.00264195
0.0021805
0.00167941
0.00119703
0.000796719
0.000488996
0.000276554
0.000144552
6.64021e-05
2.81734e-05
9.09609e-06
2.57091e-06
-8.34831e-07
-4.4271e-06
-1.26207e-05
-2.78076e-05
-5.21526e-05
-8.62375e-05
-0.000129249
-0.00017931
-0.000232579
-0.000285311
-0.000332208
-0.000369334
-0.000392466
-0.000399438
-0.000389289
-0.000362807
-0.000322908
-0.000273026
-0.000218555
-0.000163858
-0.000114066
-7.22571e-05
-4.06979e-05
-1.96754e-05
-7.59878e-06
-2.03742e-06
1.26733e-06
5.84243e-06
1.59087e-05
3.38479e-05
6.11776e-05
9.757e-05
0.000140762
0.000187738
0.000233586
0.000274208
0.000304724
0.000322195
0.000324455
0.000311327
0.000284518
0.000246665
0.000202362
0.000155591
0.000111313
7.27157e-05
4.25143e-05
2.15011e-05
8.85472e-06
2.72298e-06
-6.53675e-07
-4.67689e-06
-1.54004e-05
-3.67151e-05
-8.04193e-05
-0.00015396
-0.000279236
-0.000469206
-0.00074567
-0.00111834
-0.00157456
-0.00209737
-0.00261818
-0.0030782
-0.00338844
-0.00348882
-0.00334581
-0.00296456
-0.00242547
-0.00180323
-0.00121922
-0.000754077
-0.000432135
-0.000245533
-0.000155516
-0.000117972
6.2074e-05
8.97599e-05
0.000153144
0.000308233
0.000582601
0.00100282
0.00155913
0.00214094
0.00266439
0.00301123
0.00312198
0.00299342
0.00265047
0.00218908
0.0016736
0.00119095
0.000786899
0.000478939
0.000270274
0.000138187
6.39831e-05
2.57413e-05
8.54817e-06
2.02327e-06
-5.63333e-07
-4.15506e-06
-1.18027e-05
-2.69873e-05
-5.11962e-05
-8.5276e-05
-0.000128708
-0.000178762
-0.000232876
-0.0002856
-0.000333386
-0.000370507
-0.000394129
-0.000401099
-0.000390773
-0.000364294
-0.00032362
-0.000273746
-0.000218288
-0.0001636
-0.000113113
-7.13104e-05
-3.96903e-05
-1.8671e-05
-7.14965e-06
-1.58912e-06
9.11748e-07
5.48617e-06
1.50086e-05
3.2945e-05
6.03455e-05
9.67325e-05
0.000140604
0.000187574
0.000234348
0.000274964
0.000306145
0.000323613
0.000325914
0.000312788
0.000285382
0.000247535
0.000202331
0.000155567
0.000110568
7.19771e-05
4.15997e-05
2.05896e-05
8.36706e-06
2.23623e-06
-3.65163e-07
-4.38778e-06
-1.4063e-05
-3.53762e-05
-7.68527e-05
-0.00015041
-0.000271897
-0.000461965
-0.00073598
-0.00110889
-0.00157049
-0.00209354
-0.00262875
-0.00308866
-0.00341234
-0.00351212
-0.00336751
-0.00298544
-0.00242605
-0.00180348
-0.00120295
-0.000738115
-0.000421508
-0.000235052
-0.00015198
-0.000114445
5.92648e-05
8.69432e-05
0.000143016
0.000298144
0.000565566
0.000985444
0.00155892
0.00214104
0.00268697
0.00303469
0.00314652
0.00301859
0.00265967
0.00219835
0.00166733
0.00118438
0.000776295
0.000468078
0.000263492
0.000131314
6.1371e-05
2.3115e-05
7.9565e-06
1.43192e-06
-2.70158e-07
-3.86131e-06
-1.09193e-05
-2.61015e-05
-5.01634e-05
-8.42377e-05
-0.000128124
-0.00017817
-0.000233196
-0.000285912
-0.000334658
-0.000371773
-0.000395924
-0.000402893
-0.000392375
-0.000365901
-0.000324389
-0.000274523
-0.000217999
-0.00016332
-0.000112084
-7.02882e-05
-3.86022e-05
-1.75863e-05
-6.66466e-06
-1.10503e-06
5.2778e-07
5.10147e-06
1.40365e-05
3.19701e-05
5.94471e-05
9.58282e-05
0.000140434
0.000187396
0.000235171
0.00027578
0.000307679
0.000325144
0.000327489
0.000314365
0.000286314
0.000248473
0.000202297
0.000155541
0.000109764
7.11795e-05
4.06121e-05
1.96054e-05
7.84046e-06
1.71062e-06
-5.36167e-08
-4.07559e-06
-1.26188e-05
-3.39304e-05
-7.30014e-05
-0.000146578
-0.000263972
-0.000454145
-0.000725516
-0.00109869
-0.0015661
-0.00208941
-0.00264016
-0.00309995
-0.00343816
-0.00353727
-0.00339096
-0.00300798
-0.00242667
-0.00180376
-0.00118538
-0.000720879
-0.000410042
-0.000223734
-0.000148161
-0.000110637
5.67235e-05
8.3906e-05
0.000138609
0.000288355
0.000550287
0.000964141
0.00155608
0.00213289
0.00271047
0.00305736
0.00317121
0.00304332
0.00266905
0.00220905
0.00166098
0.00117791
0.000764844
0.00045635
0.000256168
0.000123893
5.85503e-05
2.0279e-05
7.31759e-06
7.93341e-07
3.90611e-08
-3.56373e-06
-1.00515e-05
-2.52124e-05
-4.91318e-05
-8.3222e-05
-0.000127547
-0.000177678
-0.000233586
-0.000286438
-0.000336111
-0.000373358
-0.00039802
-0.000405058
-0.000394355
-0.000367857
-0.000325535
-0.00027557
-0.000218017
-0.000163212
-0.000111251
-6.93582e-05
-3.7609e-05
-1.65473e-05
-6.20576e-06
-6.35493e-07
1.57787e-07
4.75239e-06
1.31193e-05
3.11261e-05
5.86766e-05
9.51912e-05
0.000140506
0.000187627
0.000236369
0.000277098
0.00030969
0.000327183
0.00032957
0.000316365
0.000287692
0.000249697
0.000202581
0.000155666
0.000109138
7.04461e-05
3.96956e-05
1.86528e-05
7.33048e-06
1.19653e-06
2.4178e-07
-3.83156e-06
-1.10593e-05
-3.23691e-05
-6.88426e-05
-0.000142439
-0.000255415
-0.000445701
-0.000714217
-0.00108767
-0.0015619
-0.00208526
-0.00265254
-0.00311121
-0.00346314
-0.00356245
-0.00341338
-0.00303137
-0.00241806
-0.00180103
-0.0011619
-0.000704512
-0.000397723
-0.000217654
-0.000143812
-0.000106923
5.5028e-05
8.0635e-05
0.000135312
0.000277784
0.000539537
0.000940036
0.00153154
0.00210122
0.00267812
0.00303611
0.00314939
0.0030438
0.00266937
0.00222593
0.00167807
0.00119745
0.000783355
0.000466662
0.000267359
0.000127183
6.31084e-05
2.10296e-05
8.76035e-06
9.54811e-07
3.04859e-07
-3.42389e-06
-9.91043e-06
-2.48763e-05
-4.87912e-05
-8.31002e-05
-0.000127417
-0.000178508
-0.000234405
-0.000288749
-0.000338413
-0.000377084
-0.00040174
-0.000409499
-0.000398798
-0.000372012
-0.000329698
-0.000278619
-0.000221077
-0.000164885
-0.000112934
-6.99598e-05
-3.82165e-05
-1.66484e-05
-6.30885e-06
-6.21395e-07
1.71736e-07
4.98813e-06
1.33534e-05
3.21454e-05
5.96907e-05
9.76469e-05
0.000142953
0.000191788
0.000240521
0.00028256
0.000315146
0.000332948
0.000335335
0.000321273
0.000292606
0.000252962
0.000205855
0.000157212
0.000110692
7.08367e-05
4.00919e-05
1.86427e-05
7.32256e-06
1.13596e-06
1.81384e-07
-4.42942e-06
-1.14067e-05
-3.45339e-05
-7.00547e-05
-0.000148031
-0.000259659
-0.000457743
-0.000725503
-0.00110543
-0.00158067
-0.00209913
-0.00266629
-0.0031071
-0.00345929
-0.00353654
-0.00338814
-0.00299555
-0.00238301
-0.00177321
-0.00113459
-0.000690981
-0.000384421
-0.000212463
-0.00013866
-0.000103763
5.31972e-05
7.71029e-05
0.000131752
0.000266369
0.000527929
0.000914006
0.00150504
0.00206703
0.00264319
0.00301316
0.00312583
0.00304432
0.00266972
0.00224417
0.00169652
0.00121854
0.000804782
0.000480727
0.000281639
0.000133457
6.94553e-05
2.28762e-05
1.0617e-05
1.24169e-06
5.91879e-07
-3.27288e-06
-9.75811e-06
-2.45134e-05
-4.84235e-05
-8.29686e-05
-0.000127277
-0.000179404
-0.00023529
-0.000291244
-0.000340898
-0.000381106
-0.000405758
-0.000414296
-0.000403597
-0.000376499
-0.000334194
-0.000281913
-0.000224382
-0.000166691
-0.000114751
-7.06094e-05
-3.88726e-05
-1.67577e-05
-6.42017e-06
-6.06171e-07
1.86799e-07
5.2427e-06
1.36063e-05
3.3246e-05
6.07858e-05
0.000100299
0.000145596
0.000196282
0.000245005
0.000288457
0.000321037
0.000339173
0.000341559
0.000326573
0.000297911
0.000256488
0.000209391
0.000158881
0.000112371
7.12585e-05
4.05199e-05
1.86319e-05
7.31401e-06
1.07055e-06
1.16166e-07
-5.07501e-06
-1.20508e-05
-3.74104e-05
-7.29125e-05
-0.000155953
-0.000267489
-0.000473177
-0.00074071
-0.001126
-0.00160095
-0.0021141
-0.00268114
-0.00310265
-0.00345513
-0.00350857
-0.00336089
-0.00295688
-0.00234516
-0.00174317
-0.0011051
-0.000676368
-0.000370056
-0.000206857
-0.000133097
-0.000100351
5.12203e-05
7.32888e-05
0.000127908
0.000254043
0.000515394
0.000885898
0.00147642
0.0020301
0.00260548
0.00298838
0.00310038
0.00304488
0.0026701
0.00226386
0.00171644
0.00124132
0.00082792
0.000495914
0.00029706
0.000140233
7.63089e-05
2.48702e-05
1.26218e-05
1.55147e-06
9.01815e-07
-3.10982e-06
-9.59363e-06
-2.41215e-05
-4.80263e-05
-8.28265e-05
-0.000127125
-0.000180372
-0.000236245
-0.000293939
-0.000343582
-0.00038545
-0.000410096
-0.000419475
-0.000408778
-0.000381344
-0.000339048
-0.000285469
-0.000227951
-0.000168642
-0.000116713
-7.13109e-05
-3.9581e-05
-1.68756e-05
-6.54037e-06
-5.89731e-07
2.03065e-07
5.51759e-06
1.38794e-05
3.44346e-05
6.19684e-05
0.000103162
0.00014845
0.000201135
0.000249847
0.000294826
0.000327398
0.000345895
0.000348281
0.000332296
0.00030364
0.000260295
0.000213208
0.000160683
0.000114184
7.17139e-05
4.09821e-05
1.86202e-05
7.30478e-06
9.99911e-07
4.57399e-08
-5.77214e-06
-1.27464e-05
-4.05166e-05
-7.59985e-05
-0.000164508
-0.000275943
-0.000489844
-0.000757131
-0.00114822
-0.00162284
-0.00213027
-0.00269718
-0.00309785
-0.00345064
-0.00347836
-0.00333146
-0.00291511
-0.00230429
-0.00171073
-0.00107326
-0.00066059
-0.000354545
-0.000200804
-0.000127089
-9.66662e-05
4.90855e-05
6.91701e-05
0.000123757
0.000240732
0.000501859
0.000855546
0.00144552
0.00199023
0.00256475
0.00296162
0.0030729
0.00304549
0.00267051
0.00228513
0.00173796
0.00126592
0.000852905
0.000512314
0.000313711
0.000147549
8.37097e-05
2.70235e-05
1.47867e-05
1.88598e-06
1.2365e-06
-2.93374e-06
-9.41601e-06
-2.36983e-05
-4.75975e-05
-8.26731e-05
-0.000126961
-0.000181417
-0.000237277
-0.000296849
-0.00034648
-0.000390141
-0.000414781
-0.000425067
-0.000414373
-0.000386576
-0.00034429
-0.000289309
-0.000231805
-0.000170749
-0.000118832
-7.20684e-05
-4.03461e-05
-1.7003e-05
-6.67018e-06
-5.71979e-07
2.20629e-07
5.81442e-06
1.41742e-05
3.57181e-05
6.32453e-05
0.000106255
0.000151531
0.000206375
0.000255076
0.000301703
0.000334268
0.000353154
0.000355539
0.000338476
0.000309827
0.000264407
0.000217331
0.00016263
0.000116141
7.22057e-05
4.14812e-05
1.86075e-05
7.29482e-06
9.23637e-07
-3.03084e-08
-6.52493e-06
-1.34975e-05
-4.38707e-05
-7.93309e-05
-0.000173746
-0.000285073
-0.000507841
-0.000774863
-0.0011722
-0.00164648
-0.00214773
-0.0027145
-0.00309267
-0.00344579
-0.00344574
-0.00329969
-0.00287001
-0.00226016
-0.0016757
-0.00103888
-0.000643551
-0.000337795
-0.000194268
-0.000120602
-9.26873e-05
4.67803e-05
6.47226e-05
0.000119274
0.000226359
0.000487243
0.000822771
0.00141215
0.00194717
0.00252077
0.00293273
0.00304323
0.00304614
0.00267095
0.00230809
0.00176119
0.00129248
0.000879885
0.000530023
0.000331692
0.000155449
9.17014e-05
2.93486e-05
1.71245e-05
2.2472e-06
1.5979e-06
-2.7436e-06
-9.22422e-06
-2.32413e-05
-4.71344e-05
-8.25074e-05
-0.000126784
-0.000182545
-0.000238391
-0.000299991
-0.00034961
-0.000395206
-0.00041984
-0.000431107
-0.000420415
-0.000392226
-0.000349951
-0.000293456
-0.000235966
-0.000173023
-0.00012112
-7.28864e-05
-4.11722e-05
-1.71405e-05
-6.81034e-06
-5.5281e-07
2.39596e-07
6.13496e-06
1.44926e-05
3.7104e-05
6.46242e-05
0.000109594
0.000154859
0.000212033
0.000260722
0.00030913
0.000341686
0.000360992
0.000363377
0.000345149
0.000316508
0.000268846
0.000221782
0.000164732
0.000118255
7.27368e-05
4.20201e-05
1.85939e-05
7.28405e-06
8.41273e-07
-1.12429e-07
-7.33783e-06
-1.43086e-05
-4.74927e-05
-8.29294e-05
-0.000183722
-0.000294931
-0.000527276
-0.000794011
-0.0011981
-0.00167201
-0.00216659
-0.00273319
-0.00308707
-0.00344055
-0.00341052
-0.00326538
-0.00282131
-0.0022125
-0.00163788
-0.00100175
-0.000625152
-0.000319708
-0.00018721
-0.000113597
-8.83908e-05
4.4291e-05
5.992e-05
0.000114433
0.000210838
0.00047146
0.000787378
0.00137612
0.00190068
0.00247328
0.00290153
0.0030112
0.00304685
0.00267142
0.00233288
0.00178628
0.00132116
0.000909019
0.000549146
0.000351109
0.000163981
0.000100331
3.18594e-05
1.96489e-05
2.63726e-06
1.98816e-06
-2.53828e-06
-9.01711e-06
-2.27479e-05
-4.66344e-05
-8.23286e-05
-0.000126593
-0.000183764
-0.000239594
-0.000303384
-0.000352989
-0.000400675
-0.000425303
-0.000437628
-0.00042694
-0.000398326
-0.000356063
-0.000297933
-0.00024046
-0.00017548
-0.000123591
-7.37697e-05
-4.20642e-05
-1.7289e-05
-6.9617e-06
-5.3211e-07
2.60077e-07
6.48108e-06
1.48364e-05
3.86006e-05
6.61132e-05
0.000113199
0.000158452
0.000218143
0.000266818
0.000317149
0.000349696
0.000369456
0.00037184
0.000352355
0.000323721
0.00027364
0.000226589
0.000167001
0.000120537
7.33103e-05
4.2602e-05
1.85791e-05
7.27243e-06
7.52334e-07
-2.01105e-07
-8.21563e-06
-1.51844e-05
-5.14039e-05
-8.68151e-05
-0.000194494
-0.000305576
-0.000548262
-0.000814688
-0.00122607
-0.00169958
-0.00218695
-0.00275339
-0.00308103
-0.00343489
-0.00337248
-0.00322832
-0.00276872
-0.00216104
-0.00159703
-0.000961658
-0.000605284
-0.000300177
-0.000179588
-0.000106032
-8.37513e-05
4.1609e-05
5.59562e-05
0.000111096
0.000204257
0.000449699
0.000756149
0.00131426
0.00183566
0.00239697
0.00283791
0.00296116
0.00302134
0.00267572
0.00235433
0.0018267
0.0013646
0.000949802
0.000584214
0.000376071
0.000181424
0.000110951
3.7558e-05
2.27233e-05
3.93291e-06
2.29472e-06
-2.35946e-06
-9.18754e-06
-2.27183e-05
-4.67108e-05
-8.26238e-05
-0.000127248
-0.00018539
-0.000241997
-0.000307299
-0.000357913
-0.000407043
-0.000432532
-0.00044559
-0.000435276
-0.000406372
-0.000363876
-0.000304618
-0.000246442
-0.000180056
-0.000127273
-7.63557e-05
-4.37998e-05
-1.85117e-05
-7.43637e-06
-8.88334e-07
6.69792e-07
7.11577e-06
1.64288e-05
4.09896e-05
6.97089e-05
0.000118258
0.000164806
0.000226236
0.000275955
0.000327614
0.000360598
0.00038067
0.000382715
0.00036236
0.000332737
0.000280984
0.00023267
0.000171329
0.000123748
7.5341e-05
4.38737e-05
1.94396e-05
7.57237e-06
9.99327e-07
-8.41792e-07
-9.40262e-06
-1.77091e-05
-5.64607e-05
-9.49659e-05
-0.000208077
-0.000326199
-0.000575699
-0.000850882
-0.00126581
-0.00173895
-0.00222068
-0.00276613
-0.00307506
-0.00339996
-0.00331317
-0.00315661
-0.00268485
-0.00208834
-0.00152712
-0.000923265
-0.000575811
-0.000288632
-0.000171258
-9.88548e-05
-7.81883e-05
3.87197e-05
5.30591e-05
0.000107599
0.000200708
0.000424137
0.000730063
0.00121871
0.00173748
0.0022609
0.00269805
0.00287658
0.00293446
0.0026873
0.00236597
0.00190177
0.00144114
0.00102677
0.000662531
0.000421841
0.000227806
0.000129029
5.5785e-05
2.72864e-05
8.50786e-06
2.40322e-06
-2.24946e-06
-1.01352e-05
-2.36615e-05
-4.79877e-05
-8.38892e-05
-0.000129624
-0.000187747
-0.00024673
-0.00031201
-0.000365698
-0.000414812
-0.000442917
-0.00045597
-0.000446779
-0.000417884
-0.000374659
-0.000315421
-0.00025509
-0.000188725
-0.000133212
-8.23117e-05
-4.71705e-05
-2.18905e-05
-8.55223e-06
-2.0063e-06
1.86299e-06
8.30689e-06
2.05142e-05
4.50671e-05
7.74443e-05
0.000125978
0.000176462
0.000237873
0.00029077
0.000342412
0.000376734
0.0003968
0.00039782
0.000377472
0.000344849
0.000293113
0.00024096
0.000179639
0.00012866
8.02688e-05
4.64933e-05
2.20671e-05
8.50171e-06
1.93079e-06
-2.5896e-06
-1.11477e-05
-2.61685e-05
-6.48969e-05
-0.000119749
-0.000232656
-0.000379011
-0.000627813
-0.000928894
-0.00134249
-0.00180429
-0.00228481
-0.00276034
-0.00306964
-0.00329714
-0.00321307
-0.00300381
-0.00253619
-0.00197752
-0.00141928
-0.000887159
-0.000540483
-0.000279503
-0.000162258
-9.2226e-05
-7.15734e-05
3.52051e-05
4.95367e-05
9.33732e-05
0.000186496
0.000386263
0.000691845
0.00111553
0.00163147
0.00211396
0.00254703
0.00278526
0.00284065
0.00269981
0.00237854
0.00198283
0.00152379
0.00110988
0.000747102
0.000471265
0.000277891
0.000148551
7.54673e-05
3.22138e-05
1.34481e-05
2.52038e-06
-2.13067e-06
-1.11584e-05
-2.46801e-05
-4.93666e-05
-8.52556e-05
-0.000132189
-0.000190293
-0.000251841
-0.000317099
-0.000374105
-0.000423202
-0.00045413
-0.00046718
-0.0004592
-0.000430315
-0.000386304
-0.000327086
-0.000264428
-0.000198087
-0.000139626
-8.87431e-05
-5.08102e-05
-2.55391e-05
-9.75717e-06
-3.21352e-06
3.15146e-06
9.59312e-06
2.49258e-05
4.94702e-05
8.57974e-05
0.000134314
0.000189049
0.000250438
0.000306767
0.000358391
0.000394159
0.000414217
0.000414132
0.00039379
0.000357928
0.00030621
0.000249913
0.000188612
0.000133964
8.55899e-05
4.9322e-05
2.49043e-05
9.50526e-06
2.93662e-06
-4.47696e-06
-1.30321e-05
-3.53034e-05
-7.40067e-05
-0.000146512
-0.000259196
-0.00043604
-0.000684089
-0.00101313
-0.0014253
-0.00187484
-0.00235407
-0.00275409
-0.00306378
-0.00318612
-0.00310498
-0.0028388
-0.00237565
-0.00185785
-0.00130284
-0.000837756
-0.000491691
-0.000257421
-0.00014023
-8.45005e-05
-6.3862e-05
2.5063e-05
3.93781e-05
5.89871e-05
0.000151641
0.000286495
0.000589446
0.000973087
0.001485
0.00201616
0.00244678
0.00278759
0.00284317
0.00277802
0.0024585
0.00206889
0.00161153
0.001164
0.000802026
0.000493554
0.000300404
0.000154012
8.09646e-05
3.19774e-05
1.32174e-05
2.50679e-06
-2.14252e-06
-8.12836e-06
-2.1645e-05
-4.49177e-05
-8.07932e-05
-0.000130896
-0.000188977
-0.00025821
-0.000323443
-0.000389628
-0.000438707
-0.000476054
-0.000489098
-0.000481713
-0.00045284
-0.000403468
-0.000344273
-0.000273154
-0.000206837
-0.000140964
-9.00999e-05
-4.88028e-05
-2.35412e-05
-8.56556e-06
-2.02436e-06
2.09606e-06
8.5353e-06
2.39881e-05
4.85233e-05
8.97342e-05
0.000138233
0.000201947
0.000263313
0.000329164
0.000380769
0.000422107
0.000442158
0.000440848
0.000420514
0.000377115
0.000325416
0.000258856
0.000197579
0.000134609
8.62528e-05
4.66776e-05
2.2269e-05
8.252e-06
1.68583e-06
-3.28421e-06
-1.18361e-05
-3.59077e-05
-7.45974e-05
-0.000155594
-0.000268211
-0.000464315
-0.000712068
-0.00107194
-0.00148324
-0.00195805
-0.00243571
-0.00281938
-0.00312767
-0.00317078
-0.00308991
-0.00272451
-0.0022642
-0.0016995
-0.00114887
-0.000721133
-0.000378066
-0.000210595
-9.40333e-05
-6.70038e-05
-4.63923e-05
1.4175e-05
2.84422e-05
2.78175e-05
0.000117563
0.000180888
0.000484747
0.000819049
0.00132654
0.00191612
0.00234419
0.00279778
0.0028537
0.00286651
0.00254897
0.00216167
0.00170612
0.00121669
0.000855574
0.000511167
0.000318252
0.000156257
8.32479e-05
3.06831e-05
1.19291e-05
2.48459e-06
-2.16283e-06
-4.63415e-06
-1.81453e-05
-3.97945e-05
-7.56555e-05
-0.000129281
-0.000187338
-0.000265133
-0.00033034
-0.000406737
-0.000455796
-0.000500255
-0.000513294
-0.000506513
-0.000477651
-0.000422249
-0.000363078
-0.000282503
-0.000216213
-0.000142108
-9.12647e-05
-4.6316e-05
-2.10646e-05
-7.14484e-06
-6.06304e-07
8.24915e-07
7.26154e-06
2.26691e-05
4.71944e-05
9.37123e-05
0.000142191
0.000215838
0.000277179
0.000353624
0.000405208
0.000452778
0.00047282
0.000470187
0.000449861
0.000398106
0.000346428
0.000268475
0.000207223
0.000135032
8.66953e-05
4.35157e-05
1.91171e-05
6.7731e-06
2.09592e-07
-1.82261e-06
-1.0371e-05
-3.48306e-05
-7.3506e-05
-0.000160807
-0.000273353
-0.00048803
-0.000735472
-0.00113035
-0.00154072
-0.00204861
-0.00252456
-0.00289431
-0.00320101
-0.00316209
-0.00308137
-0.00260684
-0.0021495
-0.00152825
-0.000982403
-0.000601637
-0.000257687
-0.000165314
-5.22242e-05
-4.8253e-05
-2.77083e-05
6.46922e-06
1.828e-05
1.75973e-05
8.81354e-05
0.000150802
0.000403106
0.000729502
0.00119176
0.0017812
0.00221915
0.0026819
0.00280662
0.00282669
0.00258525
0.00220124
0.00178092
0.00128758
0.000917448
0.000568022
0.0003502
0.000185838
9.43113e-05
4.15682e-05
1.42129e-05
5.23614e-06
-1.54248e-06
-3.73964e-06
-1.63544e-05
-3.78687e-05
-7.35127e-05
-0.00012739
-0.000188045
-0.000266473
-0.000336867
-0.000414027
-0.000468714
-0.000513708
-0.00053018
-0.000523448
-0.000494293
-0.000438445
-0.000375667
-0.00029439
-0.000223173
-0.000148457
-9.36305e-05
-4.84163e-05
-2.12623e-05
-7.4303e-06
-4.40098e-07
7.81383e-07
8.09127e-06
2.3489e-05
5.10731e-05
9.79845e-05
0.000152039
0.000226429
0.000294313
0.00037155
0.000427961
0.000475996
0.000496854
0.000494119
0.00047008
0.000417696
0.00035943
0.000280623
0.000212827
0.000139949
8.75855e-05
4.41434e-05
1.86712e-05
6.46224e-06
-3.65332e-07
-2.16843e-06
-1.4088e-05
-3.81242e-05
-8.65264e-05
-0.000174476
-0.000305285
-0.000522908
-0.000791115
-0.00119093
-0.00160222
-0.00211284
-0.00254647
-0.00291192
-0.00314105
-0.00309497
-0.00294784
-0.00246496
-0.0019994
-0.00137881
-0.000879472
-0.000506976
-0.000218888
-0.000127358
-3.88292e-05
-3.49367e-05
-1.90057e-05
-1.85179e-06
7.30644e-06
6.56111e-06
5.63585e-05
0.000118313
0.000314946
0.000638952
0.00104644
0.0016321
0.00208265
0.00254203
0.00275063
0.00276922
0.00261989
0.00223634
0.00185839
0.00136635
0.000985052
0.000636648
0.000387799
0.000223863
0.000108479
5.58181e-05
1.74123e-05
8.43992e-06
-8.18782e-07
-3.0149e-06
-1.45871e-05
-3.60912e-05
-7.1484e-05
-0.000125336
-0.000189016
-0.000267407
-0.000343839
-0.000420962
-0.000482199
-0.000527172
-0.000547639
-0.00054091
-0.000511413
-0.000455592
-0.000388615
-0.000307377
-0.000230422
-0.000155742
-9.6278e-05
-5.10852e-05
-2.17163e-05
-7.89087e-06
-3.75083e-07
8.4582e-07
9.17185e-06
2.45622e-05
5.57066e-05
0.000102596
0.000163141
0.000237495
0.000312996
0.000390196
0.000452227
0.000500239
0.000522046
0.000519312
0.000490953
0.000438594
0.000372657
0.000293888
0.000218475
0.000145631
8.85813e-05
4.51598e-05
1.84375e-05
6.23433e-06
-9.00788e-07
-2.70303e-06
-1.85457e-05
-4.25703e-05
-0.000103471
-0.000191312
-0.000345673
-0.000562837
-0.000857006
-0.00125585
-0.00166855
-0.00217815
-0.00256081
-0.00292628
-0.00306146
-0.00301739
-0.00278922
-0.00231022
-0.00183398
-0.00121764
-0.000774475
-0.000404758
-0.000176991
-8.63722e-05
-2.43648e-05
-2.05573e-05
-9.60838e-06
-1.08372e-05
-4.54326e-06
-5.35623e-06
2.20445e-05
8.3231e-05
0.000219748
0.000541173
0.000889523
0.00147108
0.00193526
0.00239099
0.00269017
0.00270717
0.0026573
0.00227424
0.00194204
0.0014514
0.00105805
0.000710753
0.0004284
0.000264924
0.000123779
7.12058e-05
2.08671e-05
1.18995e-05
-3.73068e-08
-2.2323e-06
-1.26787e-05
-3.41718e-05
-6.92934e-05
-0.000123117
-0.000190064
-0.000268415
-0.000351367
-0.000428451
-0.000496762
-0.000541712
-0.000566492
-0.000559767
-0.000529899
-0.000474107
-0.000402597
-0.000321401
-0.000238251
-0.000163609
-9.91369e-05
-5.39671e-05
-2.22065e-05
-8.38821e-06
-3.04876e-07
9.15402e-07
1.03387e-05
2.57212e-05
6.07102e-05
0.000107575
0.000175129
0.000249445
0.000333171
0.000410331
0.000478429
0.000526417
0.00054925
0.000546517
0.000513492
0.00046116
0.000386941
0.000308212
0.000224574
0.000151768
8.96567e-05
4.62573e-05
1.81852e-05
5.98823e-06
-1.479e-06
-3.28031e-06
-2.33593e-05
-4.73714e-05
-0.000121768
-0.000209492
-0.000389286
-0.000605954
-0.000928158
-0.00132597
-0.00174017
-0.00224867
-0.0025763
-0.00294179
-0.00297552
-0.00293363
-0.00261793
-0.00214312
-0.00165535
-0.0010436
-0.000661096
-0.000294378
-0.000131749
-4.21141e-05
-8.74555e-06
-5.02983e-06
5.39257e-07
-1.90502e-05
-1.36837e-05
-5.51634e-06
1.66873e-05
8.1683e-05
0.000194528
0.000465201
0.000787438
0.00128554
0.00175246
0.00218017
0.00251389
0.00258981
0.00257941
0.00229274
0.00197949
0.00154647
0.00114898
0.00080107
0.000504839
0.000316341
0.000163546
9.09293e-05
3.51071e-05
1.61863e-05
3.20879e-06
-3.10361e-06
-1.31071e-05
-3.50412e-05
-7.00445e-05
-0.000122867
-0.000191064
-0.000268718
-0.000354185
-0.000431765
-0.000502812
-0.000549432
-0.000575886
-0.000571357
-0.000541356
-0.000487425
-0.000414173
-0.0003338
-0.000248261
-0.000173054
-0.00010665
-5.95573e-05
-2.68747e-05
-1.0104e-05
-1.80221e-06
2.89764e-06
1.27456e-05
3.15699e-05
6.80466e-05
0.000117779
0.000188043
0.000264228
0.000351134
0.00042894
0.000499381
0.000546843
0.000570069
0.000565976
0.000531142
0.000477144
0.00039972
0.000319512
0.000232694
0.000158743
9.4679e-05
4.99962e-05
2.14073e-05
6.60264e-06
-9.91558e-07
-8.48869e-06
-3.02137e-05
-6.47045e-05
-0.000145296
-0.000251702
-0.000442988
-0.000678665
-0.00101248
-0.00140113
-0.00181538
-0.00226023
-0.0025655
-0.00283695
-0.00283079
-0.00273443
-0.0023858
-0.00193957
-0.00145027
-0.000923037
-0.00056751
-0.000259478
-0.000122692
-3.72869e-05
-1.08242e-05
1.38781e-06
5.20768e-06
-2.8547e-05
-2.31938e-05
-9.05323e-06
1.31358e-05
6.67183e-05
0.000179534
0.000370165
0.000690008
0.00107472
0.00153601
0.0019496
0.0022775
0.00246982
0.00245635
0.0023164
0.00200341
0.00164859
0.00125279
0.000896713
0.000601694
0.000369699
0.000217325
0.000109913
5.41456e-05
1.91707e-05
6.20091e-06
-3.68444e-06
-1.36819e-05
-3.43708e-05
-6.93532e-05
-0.000120919
-0.000189075
-0.000268227
-0.000353643
-0.000435545
-0.000506549
-0.000558366
-0.000584805
-0.000583917
-0.000553934
-0.000500661
-0.000427452
-0.000344951
-0.000259464
-0.000180712
-0.000114348
-6.37365e-05
-3.10734e-05
-1.13536e-05
-3.05682e-06
4.58222e-06
1.44243e-05
3.71889e-05
7.36438e-05
0.00012875
0.000198972
0.00028114
0.000367994
0.000450502
0.0005209
0.000569832
0.000593045
0.000586398
0.000551585
0.000492022
0.000414644
0.000328239
0.000241473
0.000163035
9.90091e-05
5.22153e-05
2.36435e-05
7.13929e-06
-4.50372e-07
-1.35296e-05
-3.52416e-05
-8.71141e-05
-0.000167632
-0.000306893
-0.000497735
-0.00076732
-0.00110003
-0.0014811
-0.0018941
-0.00225004
-0.00255582
-0.00268251
-0.00268017
-0.0024747
-0.0021325
-0.00170247
-0.00121937
-0.000806249
-0.000453673
-0.000233584
-9.70632e-05
-3.39062e-05
-7.43388e-06
4.56575e-06
8.38011e-06
-4.3253e-05
-3.7577e-05
-2.17763e-05
1.38294e-06
1.2478e-05
0.000123357
0.00019281
0.000509549
0.000836768
0.00129167
0.00178785
0.00211181
0.0024567
0.00244227
0.00240764
0.00209639
0.00174618
0.00135197
0.0009496
0.000655287
0.000385127
0.000232939
0.000109309
5.35772e-05
1.62356e-05
3.25941e-06
7.96405e-08
-9.91031e-06
-2.30368e-05
-5.7991e-05
-0.000109505
-0.000177617
-0.00026663
-0.000351997
-0.000449321
-0.00052029
-0.000585048
-0.00061148
-0.000614299
-0.00058434
-0.000524077
-0.000450912
-0.000355242
-0.000269803
-0.000179258
-0.00011293
-5.77472e-05
-2.51017e-05
-8.58038e-06
-2.87799e-07
1.34965e-06
1.1187e-05
3.23286e-05
6.87651e-05
0.000131245
0.000201431
0.000298757
0.000385565
0.000484296
0.000554658
0.000612467
0.000635662
0.000625477
0.000590678
0.000516621
0.000439281
0.000334773
0.000248053
0.000156912
9.29225e-05
4.4085e-05
1.55321e-05
5.64678e-06
-1.93913e-06
-8.42309e-06
-3.01341e-05
-8.45197e-05
-0.000164989
-0.000320766
-0.000511416
-0.000815985
-0.00114805
-0.00156414
-0.00197587
-0.0023123
-0.00261703
-0.00263381
-0.00263326
-0.00228354
-0.00194593
-0.00144066
-0.00096443
-0.000606661
-0.000257644
-0.000160496
-2.64541e-05
-2.08068e-05
5.20378e-06
1.08835e-05
1.48586e-05
-8.52599e-05
-7.22359e-05
-5.66326e-05
-2.11689e-05
-1.05667e-05
7.33568e-05
0.000141344
0.000371018
0.000692458
0.00107391
0.0015657
0.00190895
0.00225084
0.00234283
0.00230922
0.00211036
0.00176167
0.00141936
0.00101559
0.000713695
0.000441805
0.000262477
0.00013845
6.26747e-05
2.58519e-05
4.81339e-06
1.63584e-06
-7.74297e-06
-2.08603e-05
-5.26949e-05
-0.000104173
-0.000171494
-0.000260445
-0.000349081
-0.000446337
-0.00052319
-0.000587902
-0.000619741
-0.000622559
-0.000594931
-0.00053471
-0.000460191
-0.000364588
-0.000275567
-0.000185085
-0.000115255
-6.01102e-05
-2.55672e-05
-9.0574e-06
-2.59206e-07
1.37711e-06
1.19665e-05
3.30934e-05
7.22564e-05
0.000134693
0.000209957
0.000307214
0.000399919
0.000498581
0.00057297
0.000630739
0.000653879
0.0006437
0.000604511
0.000530506
0.00044649
0.000342055
0.000249584
0.000158507
9.1996e-05
4.31926e-05
1.49089e-05
5.03053e-06
-3.18008e-06
-9.65953e-06
-3.85315e-05
-9.23398e-05
-0.000189489
-0.000345737
-0.00055618
-0.000862445
-0.00119079
-0.00160812
-0.00195873
-0.00229381
-0.00248572
-0.00250224
-0.00240131