/*--------------------------------*- C++ -*----------------------------------*\
| =========                 |                                                 |
| \\      /  F ield         | OpenFOAM: The Open Source CFD Toolbox           |
|  \\    /   O peration     | Version:  v2106                                 |
|   \\  /    A nd           | Website:  www.openfoam.com                      |
|    \\/     M anipulation  |                                                 |
\*---------------------------------------------------------------------------*/
FoamFile
{
    version     2.0;
    format      ascii;
    arch        "LSB;label=32;scalar=64";
    class       volScalarField;
    location    "0";
    object      expGpCoeffs2;
}
// * * * * * * * * * * * * * * * * * * * * * * * * * * * * * * * * * * * * * //

dimensions      [0 0 0 0 0 0 0];

internalField   nonuniform List<scalar> 
8000
(
0.011665
0.0152747
0.0228083
0.0346954
0.0507906
0.0700737
0.0904705
0.11185
0.13166
0.150123
0.166069
0.17943
0.189918
0.197511
0.202316
0.204438
0.204555
0.202742
0.200199
0.196959
0.194185
0.191915
0.190392
0.189638
0.1889
0.188119
0.186666
0.184521
0.181561
0.177788
0.173208
0.167826
0.161668
0.154739
0.147089
0.138723
0.12971
0.120057
0.10985
0.0990979
0.0879016
0.0762731
0.0643244
0.0520682
0.0396254
0.0270101
0.0143477
0.00165204
-0.0109508
-0.0234472
-0.0357158
-0.0477425
-0.0594139
-0.0707181
-0.0815526
-0.0919067
-0.101693
-0.1109
-0.119458
-0.127359
-0.134549
-0.141021
-0.14674
-0.151701
-0.155888
-0.159299
-0.161936
-0.163798
-0.164907
-0.165265
-0.16491
-0.163847
-0.16213
-0.159767
-0.156909
-0.153578
-0.15028
-0.147054
-0.144344
-0.142166
-0.140043
-0.137968
-0.134792
-0.130481
-0.12409
-0.115512
-0.104493
-0.0909193
-0.0751075
-0.057119
-0.0376351
-0.0167551
0.00405259
0.0249239
0.0435183
0.0595549
0.0717478
0.0792189
0.083216
0.0846014
0.0113743
0.0149833
0.0224315
0.0343133
0.0505557
0.0698374
0.0904978
0.111887
0.131822
0.150297
0.166281
0.179653
0.190146
0.197747
0.202516
0.204643
0.204669
0.202857
0.200201
0.196962
0.194105
0.191835
0.19035
0.189596
0.188944
0.188164
0.186732
0.184587
0.181627
0.177854
0.173272
0.16789
0.161728
0.1548
0.147144
0.138779
0.129758
0.120106
0.109889
0.0991387
0.0879315
0.0763044
0.0643437
0.0520891
0.0396336
0.0270198
0.0143445
0.00165042
-0.0109652
-0.02346
-0.0357408
-0.047766
-0.0594486
-0.0707514
-0.0815959
-0.0919487
-0.101743
-0.11095
-0.119515
-0.127415
-0.134609
-0.14108
-0.146802
-0.151763
-0.155951
-0.159362
-0.161998
-0.16386
-0.164967
-0.165324
-0.164965
-0.163902
-0.16218
-0.159816
-0.156937
-0.153607
-0.150242
-0.147018
-0.144296
-0.142119
-0.140082
-0.138007
-0.134932
-0.130618
-0.124291
-0.115706
-0.104688
-0.0911052
-0.075255
-0.0572566
-0.0377
-0.0168098
0.00414598
0.0250231
0.0438448
0.0598766
0.072131
0.0795969
0.0833279
0.084713
0.0110604
0.0146685
0.0220246
0.0339006
0.0503022
0.0695823
0.0905272
0.111928
0.131997
0.150485
0.166511
0.179894
0.190391
0.198001
0.202731
0.204864
0.204791
0.202982
0.200204
0.196965
0.19402
0.191749
0.190304
0.18955
0.188992
0.188212
0.186802
0.184658
0.181698
0.177925
0.173341
0.16796
0.161793
0.154866
0.147203
0.13884
0.129809
0.120159
0.109932
0.0991828
0.0879637
0.0763383
0.0643645
0.0521116
0.0396423
0.0270304
0.014341
0.00164866
-0.0109808
-0.0234739
-0.0357678
-0.0477913
-0.0594861
-0.0707873
-0.0816426
-0.091994
-0.101797
-0.111003
-0.119575
-0.127474
-0.134674
-0.141144
-0.14687
-0.15183
-0.15602
-0.15943
-0.162065
-0.163927
-0.165031
-0.165389
-0.165025
-0.163962
-0.162233
-0.15987
-0.156968
-0.153638
-0.150202
-0.146978
-0.144244
-0.142067
-0.140124
-0.138048
-0.135084
-0.130766
-0.124508
-0.115916
-0.104898
-0.0913059
-0.0754143
-0.0574053
-0.03777
-0.0168689
0.00424684
0.0251302
0.0441974
0.0602239
0.0725448
0.080005
0.0834487
0.0848334
0.0107214
0.0143287
0.0215852
0.033455
0.0500283
0.0693068
0.090559
0.111972
0.132185
0.150689
0.166758
0.180154
0.190657
0.198276
0.202964
0.205103
0.204923
0.203116
0.200207
0.196968
0.193927
0.191657
0.190255
0.189501
0.189044
0.188264
0.186879
0.184734
0.181774
0.178002
0.173415
0.168035
0.161863
0.154937
0.147267
0.138905
0.129865
0.120216
0.109978
0.0992304
0.0879985
0.0763748
0.064387
0.0521359
0.0396518
0.0270417
0.0143372
0.00164677
-0.0109976
-0.0234889
-0.035797
-0.0478187
-0.0595266
-0.0708262
-0.0816931
-0.0920429
-0.101856
-0.11106
-0.119641
-0.127538
-0.134744
-0.141213
-0.146942
-0.151902
-0.156093
-0.159503
-0.162138
-0.163999
-0.1651
-0.165458
-0.165089
-0.164026
-0.162291
-0.159928
-0.157
-0.153671
-0.150159
-0.146935
-0.144188
-0.142011
-0.140169
-0.138093
-0.135248
-0.130926
-0.124742
-0.116142
-0.105125
-0.0915227
-0.0755863
-0.0575658
-0.0378456
-0.0169327
0.00435575
0.0252458
0.0445781
0.060599
0.0729917
0.0804458
0.0835791
0.0849635
0.0103554
0.0139617
0.0211108
0.0329097
0.0497326
0.0690094
0.0905933
0.112019
0.132389
0.150908
0.167026
0.180434
0.190943
0.198573
0.203216
0.205361
0.205066
0.203261
0.200211
0.196971
0.193827
0.191556
0.190201
0.189447
0.1891
0.18832
0.186961
0.184817
0.181856
0.178085
0.173496
0.168116
0.161939
0.155014
0.147336
0.138975
0.129926
0.120278
0.110027
0.0992819
0.0880361
0.0764143
0.0644112
0.0521621
0.039662
0.0270539
0.0143331
0.00164472
-0.0110158
-0.023505
-0.0358285
-0.0478483
-0.0595704
-0.0708681
-0.0817476
-0.0920958
-0.10192
-0.111122
-0.119711
-0.127608
-0.13482
-0.141288
-0.147021
-0.15198
-0.156173
-0.159582
-0.162216
-0.164077
-0.165175
-0.165533
-0.165159
-0.164096
-0.162353
-0.159991
-0.157036
-0.153707
-0.150112
-0.146889
-0.144127
-0.141951
-0.140218
-0.138141
-0.135424
-0.131099
-0.124994
-0.116387
-0.10537
-0.0917567
-0.0757721
-0.0577391
-0.0379273
-0.0170016
0.00447336
0.0253707
0.0449892
0.061004
0.0735138
0.0809217
0.0837199
0.085104
0.00980593
0.0133892
0.0202707
0.0319252
0.0491611
0.068194
0.090506
0.111792
0.132589
0.151086
0.167274
0.180665
0.191207
0.198836
0.203479
0.205638
0.20522
0.203418
0.200214
0.196975
0.19372
0.191448
0.190143
0.189389
0.189242
0.188462
0.187128
0.184982
0.182021
0.178246
0.173654
0.168269
0.162087
0.155157
0.147471
0.139104
0.130044
0.120389
0.110127
0.0993725
0.0881135
0.0764824
0.0644649
0.052206
0.0396906
0.0270725
0.0143361
0.00163774
-0.0110381
-0.0235371
-0.0358752
-0.0479043
-0.0596399
-0.0709461
-0.0818376
-0.0921933
-0.102027
-0.111237
-0.119834
-0.127735
-0.134953
-0.141426
-0.147163
-0.152124
-0.156319
-0.159729
-0.162363
-0.164224
-0.165319
-0.165676
-0.165297
-0.164233
-0.162483
-0.160119
-0.157137
-0.153805
-0.150061
-0.146839
-0.144061
-0.141886
-0.14027
-0.138193
-0.135615
-0.131286
-0.125256
-0.116636
-0.10554
-0.0919494
-0.0758839
-0.0578819
-0.0379545
-0.0170581
0.00484459
0.0256012
0.0457871
0.0615837
0.0743215
0.0815749
0.0840553
0.0854137
0.00888369
0.0124149
0.0192901
0.0308622
0.0480783
0.0670988
0.0893884
0.110777
0.131555
0.150274
0.166446
0.180151
0.190683
0.198675
0.203316
0.205839
0.205424
0.203898
0.200689
0.197585
0.194345
0.192121
0.190911
0.190195
0.190154
0.189364
0.188031
0.185856
0.182896
0.179078
0.174487
0.169045
0.162864
0.155863
0.148178
0.139726
0.130669
0.120917
0.110656
0.0997953
0.0885384
0.0767922
0.0647769
0.0523972
0.0398842
0.0271423
0.0144083
0.00158603
-0.0110875
-0.0237074
-0.0360432
-0.0481872
-0.0599206
-0.0713332
-0.0822226
-0.0926736
-0.102506
-0.111797
-0.120393
-0.128362
-0.135579
-0.142104
-0.14784
-0.152838
-0.157032
-0.160464
-0.163097
-0.164967
-0.166061
-0.166413
-0.166034
-0.164952
-0.163203
-0.160811
-0.15783
-0.154456
-0.150636
-0.147336
-0.1445
-0.142219
-0.140606
-0.138322
-0.135757
-0.131104
-0.125061
-0.116092
-0.105005
-0.0911111
-0.0750605
-0.0568498
-0.0369419
-0.0159592
0.00592184
0.0266373
0.0468021
0.0624724
0.0751937
0.0823115
0.0847876
0.0860852
0.00788782
0.0113628
0.0182312
0.0297142
0.0469091
0.0659162
0.0881816
0.109682
0.130438
0.149397
0.165553
0.179595
0.190117
0.198501
0.20314
0.206056
0.205646
0.204456
0.201256
0.19839
0.195158
0.193062
0.191856
0.191179
0.191138
0.190339
0.189005
0.1868
0.183841
0.179977
0.175387
0.169883
0.163703
0.156625
0.148942
0.140398
0.131343
0.121487
0.111228
0.100252
0.0889971
0.0771267
0.0651139
0.0526037
0.0400932
0.0272176
0.0144862
0.0015302
-0.0111407
-0.0238912
-0.0362245
-0.0484927
-0.0602237
-0.0717511
-0.0826383
-0.0931922
-0.103023
-0.112403
-0.120996
-0.129039
-0.136254
-0.142836
-0.148571
-0.153609
-0.157802
-0.161258
-0.163891
-0.165768
-0.166863
-0.167208
-0.166829
-0.165729
-0.16398
-0.161558
-0.158578
-0.15516
-0.15134
-0.14795
-0.145112
-0.142653
-0.141036
-0.138469
-0.135902
-0.130891
-0.12485
-0.115504
-0.104427
-0.0902059
-0.0741714
-0.0557353
-0.0358483
-0.0147725
0.0070851
0.0277561
0.0478982
0.063432
0.0761356
0.0831069
0.0855784
0.0868102
0.00681243
0.0102267
0.0170878
0.0284746
0.0456465
0.0646392
0.0868784
0.108499
0.129231
0.14845
0.164588
0.178994
0.189506
0.198314
0.20295
0.206291
0.205886
0.205059
0.201868
0.199259
0.196037
0.194078
0.192877
0.192241
0.1922
0.191391
0.190058
0.18782
0.184861
0.180948
0.176358
0.170788
0.164609
0.157448
0.149767
0.141124
0.132071
0.122102
0.111846
0.100745
0.0894926
0.0774879
0.0654777
0.0528266
0.0403189
0.027299
0.0145703
0.00146991
-0.0111983
-0.0240897
-0.0364203
-0.0488226
-0.060551
-0.0722024
-0.0830873
-0.0937522
-0.10358
-0.113056
-0.121648
-0.12977
-0.136984
-0.143627
-0.14936
-0.154442
-0.158634
-0.162116
-0.164747
-0.166634
-0.167728
-0.168067
-0.167688
-0.166568
-0.164819
-0.162366
-0.159386
-0.155919
-0.1521
-0.148614
-0.145773
-0.143122
-0.1415
-0.138628
-0.136058
-0.13066
-0.124622
-0.114869
-0.103802
-0.0892284
-0.0732112
-0.0545318
-0.0346675
-0.0134911
0.00834124
0.0289642
0.0490817
0.0644682
0.0771526
0.0839658
0.0864322
0.0875931
0.00565119
0.00899992
0.0158531
0.0271361
0.0442831
0.0632602
0.0854712
0.107222
0.127928
0.147428
0.163546
0.178346
0.188847
0.198111
0.202745
0.206544
0.206144
0.205709
0.20253
0.200197
0.196986
0.195176
0.193979
0.193389
0.193348
0.192527
0.191194
0.188921
0.185963
0.181996
0.177407
0.171765
0.165588
0.158336
0.150657
0.141908
0.132857
0.122766
0.112513
0.101277
0.0900275
0.077878
0.0658706
0.0530674
0.0405626
0.0273868
0.0146612
0.0014048
-0.0112604
-0.024304
-0.0366317
-0.0491789
-0.0609045
-0.0726898
-0.0835721
-0.094357
-0.104183
-0.113762
-0.122352
-0.130559
-0.137771
-0.14448
-0.150212
-0.155341
-0.159532
-0.163041
-0.165672
-0.167569
-0.168663
-0.168995
-0.168616
-0.167474
-0.165725
-0.163237
-0.160259
-0.156739
-0.152921
-0.14933
-0.146487
-0.143628
-0.142001
-0.1388
-0.136227
-0.130411
-0.124376
-0.114184
-0.103128
-0.0881729
-0.0721744
-0.0532322
-0.0333924
-0.0121074
0.00969767
0.0302688
0.0503597
0.0655872
0.0782509
0.0848933
0.0873543
0.0884386
0.00439723
0.00767517
0.0145198
0.0256906
0.0428109
0.0617712
0.0839516
0.105843
0.126521
0.146324
0.162421
0.177646
0.188134
0.197893
0.202523
0.206818
0.206424
0.206412
0.203244
0.201211
0.19801
0.196361
0.19517
0.194628
0.194587
0.193754
0.192422
0.19011
0.187153
0.183127
0.17854
0.17282
0.166644
0.159296
0.151619
0.142755
0.133706
0.123484
0.113233
0.101852
0.0906052
0.0782992
0.0662949
0.0533274
0.0408258
0.0274817
0.0147593
0.0013345
-0.0113274
-0.0245355
-0.03686
-0.0495635
-0.0612862
-0.0732161
-0.0840956
-0.09501
-0.104833
-0.114525
-0.123112
-0.131411
-0.138622
-0.145402
-0.151133
-0.156312
-0.160502
-0.164041
-0.166671
-0.168578
-0.169672
-0.169996
-0.169617
-0.168452
-0.166704
-0.164179
-0.161201
-0.157625
-0.153808
-0.150104
-0.147258
-0.144174
-0.142542
-0.138986
-0.13641
-0.130141
-0.12411
-0.113444
-0.1024
-0.0870331
-0.0710548
-0.0518289
-0.0320155
-0.0106133
0.0111624
0.0316776
0.0517398
0.0667955
0.0794368
0.0858948
0.08835
0.0893515
0.00304316
0.00624465
0.0130801
0.0241298
0.0412211
0.0601632
0.0823107
0.104353
0.125002
0.145131
0.161206
0.17689
0.187365
0.197657
0.202284
0.207113
0.206726
0.20717
0.204015
0.202305
0.199117
0.19764
0.196455
0.195965
0.195925
0.195079
0.193747
0.191394
0.188437
0.184349
0.179763
0.173959
0.167785
0.160332
0.152657
0.143669
0.134622
0.124259
0.11401
0.102473
0.091229
0.078754
0.0667531
0.0536082
0.04111
0.0275841
0.0148652
0.00125858
-0.0113998
-0.0247854
-0.0371065
-0.0499789
-0.0616983
-0.0737844
-0.0846608
-0.0957152
-0.105536
-0.115348
-0.123933
-0.132332
-0.13954
-0.146398
-0.152127
-0.15736
-0.161549
-0.16512
-0.16775
-0.169668
-0.170761
-0.171078
-0.170699
-0.169508
-0.167761
-0.165195
-0.162218
-0.158581
-0.154765
-0.150939
-0.148091
-0.144765
-0.143126
-0.139187
-0.136606
-0.129851
-0.123823
-0.112645
-0.101614
-0.0858024
-0.0698458
-0.0503135
-0.0305286
-0.00899981
0.0127441
0.0331988
0.0532301
0.0681002
0.0807174
0.0869764
0.0894252
0.0903373
0.00115315
0.00431698
0.0107778
0.0219244
0.0386795
0.0578254
0.0797758
0.102052
0.122812
0.143195
0.159437
0.175476
0.186248
0.196941
0.201982
0.207206
0.207181
0.208011
0.205065
0.203692
0.200584
0.199315
0.1982
0.197751
0.197843
0.196988
0.195618
0.193237
0.190241
0.18611
0.18147
0.175608
0.169366
0.161841
0.154084
0.145011
0.13587
0.125409
0.115055
0.10341
0.0920518
0.0794609
0.0673385
0.0540721
0.0414482
0.0277977
0.0149516
0.00122029
-0.0115638
-0.0250711
-0.0375135
-0.0505015
-0.0623348
-0.0745279
-0.0855082
-0.0966584
-0.106571
-0.116466
-0.125128
-0.133595
-0.140866
-0.147777
-0.153553
-0.158823
-0.163044
-0.166637
-0.169283
-0.171209
-0.172305
-0.172616
-0.172228
-0.17102
-0.169252
-0.166659
-0.163661
-0.159982
-0.156025
-0.1521
-0.149149
-0.145578
-0.14379
-0.139504
-0.136643
-0.129513
-0.123097
-0.111547
-0.100165
-0.0840044
-0.0678901
-0.0481105
-0.0283185
-0.0066843
0.0149882
0.0355155
0.0551826
0.0701041
0.0823233
0.0886075
0.0909785
0.0918467
-0.00135805
0.001802
0.00824929
0.0193612
0.0355742
0.0546437
0.0760827
0.0982602
0.119267
0.13956
0.156626
0.172599
0.184518
0.195174
0.201552
0.206769
0.20813
0.208979
0.207223
0.205879
0.203553
0.202306
0.201359
0.200914
0.200833
0.199977
0.198492
0.196111
0.192994
0.188864
0.184059
0.178199
0.171748
0.164226
0.156217
0.147147
0.137716
0.127259
0.116581
0.104939
0.0932292
0.0806423
0.0681466
0.0548844
0.0418739
0.0282277
0.0149904
0.00126357
-0.0119072
-0.0254101
-0.0382256
-0.0512094
-0.0633932
-0.0755823
-0.0868826
-0.0980292
-0.108224
-0.118116
-0.127018
-0.135482
-0.142947
-0.149855
-0.155776
-0.161045
-0.165363
-0.168955
-0.171654
-0.173578
-0.174685
-0.174995
-0.174579
-0.173371
-0.171542
-0.168949
-0.165888
-0.16221
-0.158206
-0.15428
-0.150935
-0.147352
-0.144619
-0.140322
-0.13619
-0.129066
-0.121324
-0.109807
-0.0973064
-0.0812057
-0.0643101
-0.0446114
-0.0244946
-0.00295454
0.0184239
0.0388618
0.0576659
0.0725278
0.0841354
0.0903951
0.0931
0.0939656
-0.00415674
-0.00100065
0.00474448
0.0158242
0.0319942
0.0509862
0.0720947
0.0941653
0.115439
0.135635
0.15359
0.169493
0.18265
0.193267
0.201087
0.206298
0.209155
0.210024
0.209553
0.208241
0.206759
0.205535
0.204771
0.20433
0.20406
0.203206
0.201595
0.199215
0.195968
0.191839
0.186855
0.180998
0.17432
0.166801
0.158521
0.149454
0.13971
0.129256
0.118229
0.106591
0.0945006
0.0819181
0.0690192
0.0557616
0.0423335
0.0286921
0.0150324
0.00131031
-0.012278
-0.0257762
-0.0389945
-0.0519739
-0.0645361
-0.076721
-0.0883668
-0.0995095
-0.110009
-0.119897
-0.129059
-0.13752
-0.145193
-0.152099
-0.158177
-0.163444
-0.167867
-0.171458
-0.174213
-0.176137
-0.177254
-0.177564
-0.177118
-0.17591
-0.174014
-0.171422
-0.168292
-0.164616
-0.160562
-0.156634
-0.152863
-0.149267
-0.145514
-0.141205
-0.1357
-0.128583
-0.119409
-0.107928
-0.0942194
-0.0781836
-0.0604441
-0.040833
-0.0203654
0.001073
0.0221338
0.0424752
0.0606272
0.0754309
0.0868176
0.093056
0.0954147
0.0962775
-0.00857866
-0.00542863
-0.000449948
0.0105591
0.0268289
0.0456873
0.0677254
0.0896785
0.111999
0.132113
0.151341
0.167198
0.181826
0.192431
0.201686
0.206915
0.210961
0.211866
0.212251
0.210976
0.210015
0.208815
0.208362
0.207926
0.207843
0.206989
0.205342
0.202963
0.199576
0.195449
0.190263
0.184407
0.177465
0.169948
0.161344
0.152281
0.142157
0.131707
0.120251
0.108618
0.0960587
0.083481
0.0700826
0.0568299
0.0428831
0.0292468
0.0150614
0.00134449
-0.0127633
-0.0262565
-0.0399749
-0.0529494
-0.0659802
-0.0781604
-0.0902318
-0.10137
-0.112243
-0.122128
-0.131603
-0.140061
-0.147983
-0.154886
-0.161148
-0.166413
-0.170953
-0.174543
-0.177352
-0.179275
-0.180386
-0.180697
-0.18019
-0.178983
-0.176981
-0.17439
-0.171084
-0.16741
-0.163035
-0.159106
-0.154883
-0.151274
-0.146819
-0.142492
-0.13596
-0.128833
-0.118364
-0.106898
-0.091796
-0.0758073
-0.056845
-0.0373124
-0.0159939
0.0053374
0.0269375
0.0471504
0.0655246
0.0802026
0.0910781
0.0972595
0.0982989
0.0991582
-0.0133392
-0.0101966
-0.00575137
0.00523833
0.0212741
0.0400966
0.0630069
0.084833
0.108348
0.128375
0.148992
0.1648
0.18101
0.191604
0.202442
0.207693
0.213023
0.213969
0.215202
0.213966
0.213482
0.212307
0.212223
0.211792
0.211944
0.21109
0.20941
0.207032
0.203494
0.199369
0.193963
0.18811
0.18088
0.173366
0.164411
0.155351
0.144815
0.13437
0.122449
0.11082
0.0977513
0.0851787
0.0712373
0.0579901
0.0434794
0.0298486
0.0150919
0.00138052
-0.013292
-0.0267796
-0.0410417
-0.0540108
-0.0675508
-0.0797261
-0.0922598
-0.103394
-0.114672
-0.124553
-0.134368
-0.142823
-0.151016
-0.157916
-0.164376
-0.169639
-0.174306
-0.177895
-0.180761
-0.182683
-0.183788
-0.184098
-0.183527
-0.18232
-0.180201
-0.177611
-0.17411
-0.170437
-0.165693
-0.161762
-0.157051
-0.153427
-0.148298
-0.143952
-0.136366
-0.129229
-0.117338
-0.105887
-0.0892352
-0.0732962
-0.0530018
-0.0335532
-0.0112813
0.00993453
0.0321321
0.0522044
0.0706441
0.0853138
0.0953088
0.101441
0.101408
0.10226
-0.0175674
-0.0146847
-0.0102663
0.000247685
0.0161777
0.0347613
0.0575562
0.0796014
0.103131
0.123851
0.144521
0.161444
0.177753
0.189754
0.200778
0.207531
0.213067
0.21536
0.216746
0.216493
0.216106
0.215457
0.215419
0.215137
0.215224
0.214328
0.212646
0.210156
0.206607
0.202325
0.196904
0.190849
0.1836
0.17584
0.166861
0.157515
0.146951
0.136183
0.12423
0.112247
0.0991438
0.0861916
0.0722138
0.0585708
0.0440221
0.0299888
0.0151936
0.00108321
-0.0136272
-0.0274996
-0.0417981
-0.0551273
-0.0687013
-0.0812022
-0.0937667
-0.105184
-0.116489
-0.126603
-0.136441
-0.145076
-0.153287
-0.160313
-0.166785
-0.17212
-0.176795
-0.180403
-0.183273
-0.185169
-0.186272
-0.186516
-0.185939
-0.184632
-0.182504
-0.179786
-0.176272
-0.172422
-0.167734
-0.163473
-0.158705
-0.154393
-0.149146
-0.143702
-0.135954
-0.127463
-0.115382
-0.102587
-0.0857947
-0.0687859
-0.0484475
-0.0283767
-0.00611569
0.0152049
0.0373052
0.0570044
0.0752703
0.089198
0.0991112
0.104551
0.104501
0.105066
-0.0221331
-0.0195313
-0.0151418
-0.00514142
0.0106743
0.0290001
0.051642
0.073952
0.097335
0.118915
0.139468
0.157752
0.173981
0.187685
0.198669
0.207234
0.212767
0.21669
0.218098
0.219049
0.218688
0.218698
0.218673
0.218583
0.218671
0.217725
0.216044
0.213422
0.209876
0.20541
0.199992
0.193701
0.186456
0.17841
0.169435
0.159755
0.149197
0.138051
0.126105
0.113708
0.100611
0.0872168
0.0732456
0.0591415
0.0445998
0.0300974
0.0153093
0.000734001
-0.0139694
-0.0282901
-0.0425818
-0.0563304
-0.069898
-0.0827782
-0.0953367
-0.107083
-0.118383
-0.128769
-0.138603
-0.147448
-0.155655
-0.162827
-0.169297
-0.174714
-0.179387
-0.183019
-0.185887
-0.187753
-0.188856
-0.189021
-0.188445
-0.18702
-0.184893
-0.182026
-0.178513
-0.174457
-0.169771
-0.165086
-0.160313
-0.155132
-0.149879
-0.143082
-0.135343
-0.125209
-0.113167
-0.0987463
-0.0820298
-0.0637238
-0.0434939
-0.0226572
-0.000529665
0.020935
0.0428888
0.0621349
0.0802658
0.0933923
0.103217
0.10791
0.107841
0.108095
-0.0270634
-0.0247647
-0.0204064
-0.0109608
0.00473158
0.022779
0.0452555
0.0678517
0.0910765
0.113585
0.134013
0.153765
0.169908
0.18545
0.196392
0.206914
0.212444
0.218128
0.219559
0.221809
0.221476
0.222197
0.222186
0.222304
0.222392
0.221393
0.219713
0.21695
0.213405
0.208741
0.203326
0.196781
0.189539
0.181185
0.172214
0.162174
0.151621
0.140069
0.128129
0.115286
0.102195
0.0883238
0.0743598
0.0597578
0.0452235
0.0302147
0.0154341
0.00035691
-0.014339
-0.0291437
-0.0434281
-0.0576296
-0.0711902
-0.08448
-0.0970321
-0.109134
-0.120428
-0.131109
-0.140937
-0.150009
-0.158212
-0.165542
-0.172008
-0.177516
-0.182186
-0.185844
-0.18871
-0.190543
-0.191645
-0.191727
-0.191151
-0.189599
-0.187473
-0.184444
-0.180933
-0.176655
-0.171972
-0.166827
-0.16205
-0.15593
-0.15067
-0.142413
-0.134684
-0.122775
-0.110775
-0.0945988
-0.0779644
-0.0582574
-0.0381448
-0.016481
0.00550235
0.0271226
0.0489181
0.067675
0.0856602
0.0979216
0.107651
0.111537
0.111447
0.111367
-0.0317875
-0.0295929
-0.0247572
-0.0155983
-0.000839652
0.016911
0.038372
0.0609594
0.0839299
0.106717
0.127502
0.147772
0.164731
0.180965
0.193116
0.204408
0.211378
0.217784
0.220558
0.223371
0.223968
0.225015
0.225273
0.22549
0.225382
0.224362
0.222577
0.21976
0.216113
0.211374
0.205838
0.199196
0.191817
0.183345
0.17422
0.164043
0.153321
0.141615
0.129492
0.116479
0.103197
0.089144
0.0749814
0.0601903
0.0454558
0.0302547
0.0152777
9.94896e-06
-0.0148728
-0.0298611
-0.044317
-0.0586902
-0.0724009
-0.0858457
-0.0985218
-0.110758
-0.122146
-0.132938
-0.142828
-0.151985
-0.160217
-0.167606
-0.17407
-0.17961
-0.184249
-0.187916
-0.190726
-0.192546
-0.193573
-0.193621
-0.192957
-0.191356
-0.189133
-0.186042
-0.182436
-0.178073
-0.173358
-0.168001
-0.16276
-0.156219
-0.149949
-0.141077
-0.13207
-0.119455
-0.106271
-0.0894328
-0.0720074
-0.0518089
-0.0313954
-0.00948828
0.0122817
0.0338623
0.0548469
0.0732931
0.0899611
0.101741
0.110529
0.114104
0.11485
0.11466
-0.0371501
-0.0349625
-0.0310996
-0.0220125
-0.00773489
0.00985323
0.0306971
0.0530771
0.0760699
0.0986573
0.120374
0.140479
0.159089
0.1752
0.189472
0.200693
0.210001
0.216386
0.221314
0.224138
0.226249
0.227312
0.228098
0.228319
0.228143
0.227125
0.225185
0.22237
0.218549
0.213812
0.208067
0.201429
0.193805
0.185338
0.175936
0.165765
0.154734
0.143034
0.130576
0.117571
0.103931
0.0898867
0.0753531
0.0605708
0.0454601
0.0302682
0.0149203
-0.000338312
-0.0155753
-0.0305547
-0.0453367
-0.0597014
-0.0736994
-0.0871362
-0.100051
-0.112281
-0.123852
-0.134637
-0.14465
-0.153802
-0.162096
-0.16948
-0.175947
-0.181484
-0.186071
-0.189735
-0.192448
-0.194266
-0.195157
-0.195206
-0.194378
-0.192778
-0.190373
-0.187283
-0.183491
-0.17913
-0.174119
-0.168764
-0.162653
-0.156114
-0.148159
-0.139309
-0.128195
-0.115644
-0.100454
-0.0837278
-0.0647842
-0.0447389
-0.0235073
-0.00177958
0.0199472
0.0413372
0.0614418
0.0797147
0.0951292
0.106793
0.114691
0.118222
0.118258
0.118064
-0.0440778
-0.0419206
-0.0394446
-0.030482
-0.0170285
0.000400845
0.0217262
0.0438752
0.067944
0.0903267
0.113607
0.133558
0.154298
0.170301
0.187081
0.19826
0.209911
0.216299
0.222984
0.225831
0.229003
0.230085
0.231413
0.231638
0.231626
0.230608
0.228575
0.225761
0.221755
0.217021
0.211035
0.204402
0.196485
0.188023
0.178275
0.168111
0.156686
0.144994
0.1321
0.119102
0.104992
0.0909562
0.0759271
0.061154
0.0455361
0.0303536
0.0145016
-0.000747531
-0.0164698
-0.0314398
-0.0466718
-0.0610273
-0.0754249
-0.0888531
-0.102104
-0.114325
-0.126159
-0.136937
-0.147131
-0.156278
-0.16467
-0.17205
-0.178534
-0.184068
-0.188599
-0.192261
-0.194851
-0.196667
-0.197382
-0.19743
-0.196383
-0.194783
-0.192129
-0.189041
-0.184969
-0.180611
-0.175217
-0.169864
-0.163031
-0.156494
-0.147225
-0.138387
-0.125353
-0.112846
-0.0953713
-0.0787407
-0.0576831
-0.0377914
-0.0151287
0.00640883
0.0287901
0.0499579
0.0700329
0.0881064
0.102707
0.114229
0.120431
0.123816
0.121824
0.121603
-0.0503345
-0.0486232
-0.0461864
-0.0382098
-0.0249214
-0.00844052
0.0126466
0.0343564
0.0581921
0.0809226
0.104004
0.125118
0.145702
0.163591
0.180306
0.193812
0.205492
0.214217
0.220953
0.225658
0.228876
0.231003
0.232317
0.232823
0.23269
0.231602
0.22957
0.226618
0.222615
0.217731
0.21175
0.204956
0.197044
0.188413
0.178672
0.168329
0.156912
0.145034
0.132149
0.118962
0.104861
0.0906355
0.0756168
0.0606597
0.0450527
0.0296993
0.0138583
-0.00154047
-0.0172517
-0.0323416
-0.0475631
-0.0620005
-0.076388
-0.0898531
-0.103095
-0.115303
-0.127128
-0.13784
-0.148028
-0.157056
-0.165443
-0.172657
-0.179137
-0.184464
-0.188992
-0.192415
-0.195003
-0.19656
-0.197274
-0.197053
-0.196007
-0.19414
-0.191487
-0.188144
-0.184075
-0.17943
-0.174154
-0.168232
-0.161416
-0.153647
-0.144344
-0.133646
-0.120592
-0.106025
-0.0885737
-0.0702009
-0.0492624
-0.0283327
-0.00585926
0.015832
0.0380001
0.0584572
0.0782974
0.0949474
0.109366
0.119258
0.125352
0.127511
0.1255
0.124832
-0.0570908
-0.0558609
-0.0534301
-0.0465546
-0.0334445
-0.0179878
0.00284198
0.0240777
0.0476421
0.0707648
0.0936009
0.116004
0.136385
0.156345
0.172909
0.188979
0.20057
0.211865
0.218565
0.225321
0.228534
0.231825
0.23314
0.233972
0.233839
0.232674
0.230644
0.227544
0.223543
0.218498
0.212521
0.205554
0.197649
0.188834
0.1791
0.168564
0.157156
0.145078
0.132202
0.11881
0.10472
0.0902891
0.0752817
0.060126
0.0445308
0.0289928
0.0131637
-0.00239672
-0.0180962
-0.0333155
-0.0485255
-0.0630513
-0.0774281
-0.090933
-0.104165
-0.116359
-0.128175
-0.138816
-0.148996
-0.157898
-0.166278
-0.173313
-0.179788
-0.184891
-0.189417
-0.192581
-0.195168
-0.196444
-0.197158
-0.196647
-0.195601
-0.193445
-0.190795
-0.187176
-0.18311
-0.178154
-0.172882
-0.16631
-0.159507
-0.150359
-0.141093
-0.128337
-0.115364
-0.098526
-0.0812126
-0.0609186
-0.0401693
-0.0180995
0.00415029
0.0260161
0.047943
0.067619
0.0872217
0.102335
0.116555
0.124689
0.130667
0.131469
0.12947
0.128319
-0.0635171
-0.0623667
-0.0591393
-0.0524874
-0.0409635
-0.0259447
-0.00732489
0.0135784
0.0358861
0.0588499
0.0814997
0.103944
0.125027
0.145216
0.163271
0.179713
0.193432
0.205155
0.214129
0.221265
0.226208
0.229736
0.231745
0.232654
0.232426
0.231248
0.229116
0.225989
0.221906
0.216833
0.210809
0.203814
0.195897
0.187053
0.177344
0.166778
0.155431
0.143321
0.130539
0.117117
0.103153
0.0886926
0.0738426
0.0586589
0.0432515
0.0276885
0.012077
-0.00350402
-0.0189566
-0.0341907
-0.0491255
-0.0636586
-0.077733
-0.0912365
-0.104141
-0.116324
-0.127791
-0.138412
-0.148226
-0.157098
-0.165103
-0.172099
-0.178197
-0.183254
-0.18741
-0.190523
-0.192758
-0.19398
-0.19437
-0.193803
-0.19247
-0.190261
-0.187369
-0.1837
-0.179405
-0.174392
-0.168815
-0.162093
-0.154321
-0.144902
-0.133976
-0.120867
-0.106053
-0.0888816
-0.0702198
-0.0497115
-0.0284635
-0.00636494
0.0155197
0.0372108
0.0578958
0.0772105
0.094691
0.10932
0.121044
0.128695
0.133231
0.133847
0.133123
0.131899
-0.0714485
-0.0703079
-0.0698086
-0.063258
-0.0531228
-0.0383155
-0.0201273
0.000420057
0.0227287
0.0453534
0.0687538
0.0908988
0.113734
0.133677
0.154377
0.170642
0.187341
0.198962
0.210556
0.217647
0.224355
0.227868
0.230538
0.231445
0.231198
0.230021
0.227748
0.224624
0.220433
0.215365
0.209255
0.202266
0.194287
0.18545
0.1757
0.165143
0.153776
0.141678
0.128897
0.115487
0.101546
0.0870988
0.072297
0.0571266
0.0417961
0.0262468
0.0107462
-0.00482109
-0.0201228
-0.0353434
-0.0500811
-0.0646014
-0.078428
-0.0919196
-0.104522
-0.116695
-0.127807
-0.138418
-0.147828
-0.156692
-0.16425
-0.17124
-0.17686
-0.181912
-0.185571
-0.188682
-0.190418
-0.191638
-0.191543
-0.190977
-0.189189
-0.186982
-0.18368
-0.180014
-0.1754
-0.170392
-0.164531
-0.157821
-0.149172
-0.139796
-0.126999
-0.11398
-0.0967356
-0.0797216
-0.0586642
-0.0383829
-0.0154679
0.00635204
0.0287335
0.0501191
0.0701813
0.0891825
0.10527
0.119608
0.129394
0.136931
0.138979
0.139522
0.13576
0.134535
-0.0787353
-0.0781834
-0.077717
-0.0726804
-0.0628054
-0.0498244
-0.0320707
-0.0130343
0.00890943
0.0307887
0.0539167
0.0763
0.0989502
0.120151
0.140802
0.159168
0.175937
0.190027
0.201724
0.21098
0.217771
0.222563
0.225207
0.22646
0.226058
0.224839
0.222561
0.219396
0.215203
0.210172
0.204063
0.197191
0.189215
0.180575
0.170831
0.160547
0.149188
0.137437
0.124667
0.111674
0.0977462
0.0837806
0.0689934
0.0543655
0.0390516
0.0240999
0.00861789
-0.00630201
-0.021583
-0.0361125
-0.0508273
-0.0646194
-0.078421
-0.0911552
-0.103731
-0.115126
-0.126209
-0.136033
-0.145413
-0.153493
-0.161019
-0.167242
-0.17283
-0.177147
-0.180775
-0.183196
-0.184903
-0.185496
-0.185373
-0.184256
-0.182443
-0.179772
-0.176449
-0.172416
-0.167788
-0.162452
-0.156717
-0.149404
-0.140775
-0.130087
-0.117222
-0.102356
-0.0850567
-0.0662938
-0.0452515
-0.0239359
-0.00116672
0.0206348
0.0427582
0.06304
0.0827782
0.0997575
0.115426
0.127186
0.136551
0.141554
0.143433
0.142293
0.138518
0.136761
-0.086254
-0.086127
-0.0850324
-0.0811155
-0.0722241
-0.0607665
-0.0444517
-0.026726
-0.00595141
0.0152321
0.0375959
0.0600729
0.0823344
0.104448
0.125102
0.145059
0.162245
0.178225
0.190597
0.201525
0.208926
0.214724
0.217674
0.219223
0.218813
0.217561
0.215307
0.212112
0.20796
0.20296
0.196945
0.190166
0.182335
0.17385
0.164303
0.154235
0.143122
0.131644
0.119167
0.106501
0.0929087
0.0793214
0.064908
0.0507053
0.0357975
0.021314
0.00626392
-0.00814934
-0.0229795
-0.0369684
-0.0512211
-0.0644442
-0.07778
-0.0899228
-0.102037
-0.112825
-0.123459
-0.13267
-0.141619
-0.149088
-0.15621
-0.161836
-0.167051
-0.170796
-0.17409
-0.175977
-0.177392
-0.177499
-0.177132
-0.175587
-0.173581
-0.170551
-0.167087
-0.162771
-0.158013
-0.152424
-0.146559
-0.138737
-0.12977
-0.118048
-0.104749
-0.088469
-0.0708558
-0.0507813
-0.0298097
-0.00775555
0.0144991
0.0361982
0.0574584
0.076774
0.0953479
0.110631
0.124871
0.134505
0.142486
0.145509
0.146629
0.144319
0.141317
0.139183
-0.093837
-0.0937186
-0.0948294
-0.0910359
-0.0842091
-0.0730537
-0.0590319
-0.0417119
-0.0228918
-0.00214902
0.0191862
0.0412252
0.063697
0.0853955
0.107551
0.127147
0.146793
0.1625
0.177568
0.188323
0.197798
0.203511
0.207302
0.208836
0.208443
0.207193
0.204904
0.201713
0.197692
0.192698
0.186965
0.180194
0.172798
0.164323
0.155361
0.145304
0.134921
0.123456
0.111844
0.0991919
0.0865908
0.0730186
0.0597091
0.0455222
0.0318173
0.0173498
0.00358606
-0.0108112
-0.0242889
-0.0382623
-0.0511149
-0.0643233
-0.0762311
-0.0883604
-0.0990395
-0.109816
-0.119029
-0.128229
-0.135793
-0.143254
-0.14905
-0.15467
-0.158639
-0.16238
-0.164528
-0.166413
-0.166804
-0.166911
-0.165658
-0.164114
-0.161376
-0.158349
-0.154315
-0.150003
-0.144868
-0.139285
-0.133074
-0.125278
-0.115354
-0.103745
-0.0886808
-0.0726113
-0.0531277
-0.0333593
-0.0112179
0.0104639
0.0326341
0.05394