/*--------------------------------*- C++ -*----------------------------------*\
| =========                 |                                                 |
| \\      /  F ield         | OpenFOAM: The Open Source CFD Toolbox           |
|  \\    /   O peration     | Version:  v2106                                 |
|   \\  /    A nd           | Website:  www.openfoam.com                      |
|    \\/     M anipulation  |                                                 |
\*---------------------------------------------------------------------------*/
FoamFile
{
    version     2.0;
    format      ascii;
    arch        "LSB;label=32;scalar=64";
    class       volScalarField;
    location    "0";
    object      expGpCoeffs3;
}
// * * * * * * * * * * * * * * * * * * * * * * * * * * * * * * * * * * * * * //

dimensions      [0 0 0 0 0 0 0];

internalField   nonuniform List<scalar> 
8000
(
0.130622
0.134681
0.141312
0.149837
0.158154
0.166002
0.172267
0.177171
0.180186
0.181455
0.181059
0.17901
0.175548
0.170703
0.164936
0.15827
0.151507
0.144643
0.138544
0.133235
0.129291
0.12676
0.125458
0.125408
0.125715
0.12634
0.126635
0.126581
0.126045
0.125026
0.123509
0.121495
0.118982
0.115971
0.112472
0.108488
0.104039
0.0991286
0.0937892
0.0880251
0.0818776
0.0753526
0.0685009
0.0613286
0.0538948
0.0462069
0.0383306
0.0302737
0.0221072
0.0138392
0.00554309
-0.00277218
-0.011033
-0.0192312
-0.0272953
-0.0352174
-0.0429308
-0.0504279
-0.0576487
-0.0645866
-0.0711895
-0.0774514
-0.0833287
-0.088817
-0.0938815
-0.0985188
-0.102704
-0.106433
-0.109692
-0.112478
-0.114786
-0.116615
-0.117968
-0.118846
-0.119358
-0.119524
-0.119925
-0.1206
-0.122378
-0.125234
-0.129358
-0.134705
-0.140749
-0.14747
-0.154044
-0.160478
-0.166
-0.170587
-0.173794
-0.175593
-0.175763
-0.174296
-0.171137
-0.166144
-0.15982
-0.151932
-0.143513
-0.134786
-0.127935
-0.123704
0.130295
0.134353
0.141276
0.149801
0.158232
0.166084
0.17241
0.177321
0.180325
0.181599
0.181184
0.179137
0.175651
0.170807
0.164986
0.15832
0.151481
0.144615
0.138451
0.133141
0.129163
0.126631
0.125387
0.125336
0.125732
0.126356
0.126673
0.126619
0.126085
0.125066
0.123549
0.121536
0.119022
0.116011
0.112511
0.108527
0.104075
0.0991651
0.0938216
0.0880582
0.0819058
0.0753816
0.068524
0.0613527
0.0539123
0.0462253
0.0383419
0.030286
0.0221119
0.013845
0.00554113
-0.00277307
-0.0110415
-0.0192387
-0.0273101
-0.0352312
-0.0429513
-0.0504475
-0.0576742
-0.0646112
-0.0712194
-0.0774804
-0.0833621
-0.0888496
-0.0939175
-0.0985541
-0.102741
-0.106471
-0.109731
-0.112517
-0.114825
-0.116653
-0.118006
-0.118884
-0.119378
-0.119544
-0.119864
-0.120539
-0.122263
-0.125119
-0.129273
-0.134622
-0.140727
-0.147449
-0.154096
-0.16053
-0.166105
-0.17069
-0.173921
-0.175717
-0.175903
-0.174432
-0.17128
-0.166281
-0.159904
-0.152011
-0.143489
-0.134762
-0.127593
-0.123363
0.129942
0.133999
0.141238
0.149762
0.158316
0.166174
0.172563
0.177482
0.180475
0.181754
0.181319
0.179275
0.175762
0.17092
0.165041
0.158374
0.151453
0.144585
0.138351
0.133039
0.129024
0.126492
0.12531
0.125259
0.12575
0.126374
0.126715
0.12666
0.126128
0.125109
0.123593
0.12158
0.119065
0.116055
0.112552
0.108568
0.104113
0.0992044
0.0938566
0.088094
0.0819362
0.075413
0.068549
0.0613787
0.0539311
0.0462453
0.038354
0.0302993
0.022117
0.0138512
0.00553902
-0.00277404
-0.0110507
-0.0192468
-0.0273261
-0.035246
-0.0429734
-0.0504686
-0.0577018
-0.0646379
-0.0712516
-0.0775118
-0.0833981
-0.0888848
-0.0939564
-0.0985924
-0.102782
-0.106511
-0.109773
-0.112558
-0.114867
-0.116695
-0.118047
-0.118924
-0.119399
-0.119565
-0.119799
-0.120474
-0.122139
-0.124995
-0.129182
-0.134532
-0.140703
-0.147426
-0.154152
-0.160587
-0.166217
-0.170802
-0.174057
-0.17585
-0.176055
-0.174578
-0.171436
-0.166429
-0.159995
-0.152097
-0.143462
-0.134736
-0.127224
-0.122995
0.129561
0.133617
0.141197
0.14972
0.158407
0.16627
0.172729
0.177656
0.180637
0.181921
0.181464
0.179424
0.175882
0.171041
0.1651
0.158433
0.151422
0.144553
0.138243
0.13293
0.128875
0.126342
0.125227
0.125176
0.125769
0.126394
0.126759
0.126705
0.126174
0.125155
0.12364
0.121627
0.119111
0.116102
0.112597
0.108614
0.104155
0.0992469
0.0938944
0.0881326
0.0819691
0.0754468
0.0685761
0.0614068
0.0539515
0.0462668
0.0383672
0.0303136
0.0221225
0.0138579
0.00553673
-0.00277509
-0.0110607
-0.0192556
-0.0273433
-0.0352621
-0.0429973
-0.0504913
-0.0577316
-0.0646666
-0.0712864
-0.0775456
-0.0834369
-0.0889229
-0.0939983
-0.0986336
-0.102826
-0.106554
-0.109818
-0.112603
-0.114912
-0.11674
-0.118091
-0.118969
-0.119422
-0.119587
-0.119728
-0.120404
-0.122005
-0.124862
-0.129084
-0.134435
-0.140677
-0.147401
-0.154213
-0.160648
-0.166339
-0.170922
-0.174205
-0.175995
-0.176218
-0.174735
-0.171603
-0.166588
-0.160093
-0.15219
-0.143434
-0.134708
-0.126826
-0.122598
0.12915
0.133205
0.141153
0.149647
0.158506
0.166374
0.172908
0.177844
0.180812
0.182102
0.181621
0.179585
0.176012
0.171173
0.165164
0.158496
0.151389
0.144518
0.138126
0.132811
0.128713
0.126179
0.125137
0.125087
0.12579
0.126415
0.126807
0.126753
0.126224
0.125205
0.123691
0.121678
0.119162
0.116152
0.112645
0.108663
0.1042
0.0992928
0.0939352
0.0881744
0.0820045
0.0754833
0.0686052
0.0614371
0.0539736
0.0462901
0.0383814
0.0303291
0.0221284
0.0138652
0.00553427
-0.00277621
-0.0110714
-0.019265
-0.0273619
-0.0352794
-0.0430231
-0.0505159
-0.0577638
-0.0646977
-0.0713239
-0.0775822
-0.0834789
-0.0889639
-0.0940436
-0.0986782
-0.102874
-0.106601
-0.109867
-0.112651
-0.114961
-0.116789
-0.118139
-0.119017
-0.119446
-0.119612
-0.119652
-0.120327
-0.121859
-0.124717
-0.128977
-0.13433
-0.140649
-0.147375
-0.154278
-0.160713
-0.16647
-0.171051
-0.174365
-0.176151
-0.176394
-0.174906
-0.171784
-0.166761
-0.160199
-0.15229
-0.143379
-0.134678
-0.126396
-0.122169
0.128755
0.132812
0.140898
0.149399
0.15848
0.166319
0.173065
0.178006
0.180998
0.182302
0.181795
0.179785
0.176171
0.171376
0.165243
0.158582
0.151354
0.144481
0.138
0.132684
0.128539
0.126004
0.125041
0.12499
0.125915
0.126539
0.126957
0.126901
0.126375
0.125353
0.123839
0.121822
0.119305
0.11629
0.112781
0.108792
0.104326
0.0994108
0.0940485
0.0882792
0.0821033
0.0755729
0.0686878
0.0615097
0.0540382
0.0463444
0.038427
0.030364
0.0221543
0.01388
0.00553983
-0.00278165
-0.011086
-0.0192904
-0.0273961
-0.0353241
-0.0430759
-0.0505789
-0.0578339
-0.0647773
-0.0714097
-0.0776769
-0.0835787
-0.0890717
-0.0941554
-0.0987968
-0.102995
-0.106729
-0.109996
-0.112785
-0.115096
-0.116927
-0.118277
-0.119156
-0.119563
-0.11973
-0.11957
-0.120245
-0.121703
-0.124561
-0.128863
-0.134216
-0.140618
-0.147346
-0.154365
-0.160795
-0.16667
-0.17121
-0.174562
-0.176323
-0.176589
-0.175088
-0.171945
-0.166914
-0.160165
-0.152281
-0.143172
-0.134467
-0.126008
-0.121779
0.128435
0.132494
0.140578
0.14913
0.158207
0.166186
0.172932
0.178071
0.181067
0.182585
0.182087
0.180284
0.176683
0.17207
0.165952
0.159432
0.152183
0.145333
0.138867
0.133495
0.129392
0.126812
0.12597
0.125936
0.12699
0.127612
0.12803
0.127958
0.127431
0.126378
0.124864
0.122801
0.120284
0.11721
0.113701
0.109638
0.105173
0.100172
0.0948108
0.0889446
0.0827698
0.0761331
0.0692492
0.061957
0.0544869
0.0466729
0.038757
0.0305696
0.0223614
0.0139606
0.00562199
-0.00282643
-0.0111292
-0.0194591
-0.0275632
-0.0356132
-0.0433636
-0.0509833
-0.058237
-0.0652902
-0.0719214
-0.0782898
-0.0841904
-0.0897746
-0.0948574
-0.0995784
-0.103776
-0.107577
-0.110843
-0.113686
-0.115996
-0.117867
-0.119217
-0.120122
-0.120529
-0.120707
-0.120431
-0.121098
-0.122445
-0.125352
-0.129614
-0.135025
-0.141413
-0.148125
-0.155164
-0.161466
-0.167328
-0.1717
-0.175041
-0.176611
-0.176869
-0.175171
-0.172024
-0.166814
-0.160064
-0.152055
-0.142949
-0.1342
-0.125743
-0.121514
0.128089
0.132151
0.140231
0.148841
0.157913
0.166043
0.172789
0.17814
0.181141
0.182891
0.182402
0.180823
0.177235
0.172819
0.166717
0.160349
0.153118
0.146367
0.139918
0.134599
0.130509
0.127955
0.127118
0.127097
0.12815
0.12877
0.129189
0.129098
0.128572
0.127485
0.125971
0.123859
0.121342
0.118202
0.114694
0.110552
0.106088
0.100994
0.095634
0.0896631
0.0834896
0.076738
0.0698555
0.06244
0.0549714
0.0470276
0.0391134
0.0307917
0.0225852
0.0140476
0.00571071
-0.00287479
-0.0111759
-0.0196411
-0.0277436
-0.0359254
-0.0436742
-0.0514201
-0.0586723
-0.0658441
-0.0724739
-0.0789516
-0.0848511
-0.0905336
-0.0956154
-0.100422
-0.104619
-0.108492
-0.111758
-0.114659
-0.116969
-0.118883
-0.120232
-0.121165
-0.121572
-0.121762
-0.121486
-0.122152
-0.123493
-0.126385
-0.130636
-0.136006
-0.142378
-0.149004
-0.156026
-0.162191
-0.168037
-0.17223
-0.175558
-0.176923
-0.177172
-0.175261
-0.172109
-0.166706
-0.159955
-0.151811
-0.142709
-0.133911
-0.125457
-0.121228
0.127716
0.13178
0.139857
0.148528
0.157596
0.165889
0.172634
0.178215
0.181221
0.183222
0.182742
0.181406
0.177831
0.173628
0.167544
0.16134
0.154128
0.147484
0.141053
0.135792
0.131715
0.12919
0.128358
0.128351
0.129404
0.130022
0.13044
0.13033
0.129804
0.12868
0.127167
0.125
0.122485
0.119274
0.115767
0.111539
0.107076
0.101882
0.0965229
0.0904389
0.0842668
0.0773912
0.0705102
0.0629615
0.0554946
0.0474106
0.0394981
0.0310315
0.0228268
0.0141416
0.00580652
-0.00292701
-0.0112263
-0.0198378
-0.0279385
-0.0362625
-0.0440096
-0.0518917
-0.0591423
-0.0664422
-0.0730706
-0.0796663
-0.0855644
-0.0913532
-0.0964339
-0.101334
-0.10553
-0.109481
-0.112746
-0.11571
-0.118019
-0.119979
-0.121328
-0.122291
-0.122698
-0.122902
-0.122625
-0.123289
-0.124626
-0.127501
-0.13174
-0.137064
-0.14342
-0.149953
-0.156958
-0.162974
-0.168804
-0.172802
-0.176117
-0.177259
-0.177499
-0.175359
-0.1722
-0.166589
-0.159837
-0.151547
-0.142449
-0.133599
-0.125148
-0.120919
0.127313
0.13138
0.139453
0.14819
0.157253
0.165722
0.172467
0.178297
0.181307
0.183579
0.183109
0.182034
0.178474
0.174502
0.168436
0.16241
0.155219
0.14869
0.142278
0.13708
0.133017
0.130523
0.129697
0.129705
0.130757
0.131373
0.131791
0.13166
0.131134
0.12997
0.128458
0.126233
0.123718
0.120432
0.116925
0.112605
0.108143
0.102841
0.0974827
0.0912768
0.0851061
0.0780965
0.0712172
0.0635247
0.0560596
0.0478242
0.0399136
0.0312904
0.0230876
0.0142431
0.00590997
-0.00298339
-0.0112807
-0.0200501
-0.0281489
-0.0366266
-0.0443718
-0.0524009
-0.0596499
-0.067088
-0.0737148
-0.080438
-0.0863348
-0.0922383
-0.0973177
-0.102318
-0.106513
-0.110549
-0.113813
-0.116845
-0.119153
-0.121163
-0.122512
-0.123507
-0.123914
-0.124132
-0.123855
-0.124517
-0.125849
-0.128706
-0.132932
-0.138207
-0.144544
-0.150979
-0.157963
-0.16382
-0.169632
-0.17342
-0.176721
-0.177622
-0.177852
-0.175463
-0.172299
-0.166462
-0.15971
-0.151263
-0.142168
-0.133262
-0.124815
-0.120585
0.126878
0.130948
0.139017
0.147825
0.156883
0.165542
0.172286
0.178384
0.1814
0.183964
0.183505
0.182713
0.179169
0.175445
0.169399
0.163566
0.156397
0.149992
0.143601
0.138471
0.134423
0.131962
0.131142
0.131166
0.132219
0.132832
0.133249
0.133096
0.13257
0.131364
0.129852
0.127565
0.12505
0.121682
0.118176
0.113756
0.109295
0.103876
0.0985193
0.0921815
0.0860124
0.0788581
0.0719806
0.0641328
0.0566696
0.0482709
0.0403623
0.0315701
0.0233694
0.0143527
0.00602169
-0.00304428
-0.0113395
-0.0202794
-0.0283761
-0.0370197
-0.0447629
-0.0529508
-0.0601979
-0.0677854
-0.0744105
-0.0812714
-0.0871666
-0.093194
-0.0982721
-0.103381
-0.107575
-0.111702
-0.114965
-0.11807
-0.120378
-0.122442
-0.123791
-0.12482
-0.125227
-0.12546
-0.125184
-0.125843
-0.127169
-0.130007
-0.134219
-0.139442
-0.145759
-0.152085
-0.159049
-0.164733
-0.170526
-0.174087
-0.177372
-0.178015
-0.178233
-0.175577
-0.172407
-0.166326
-0.159572
-0.150955
-0.141865
-0.132899
-0.124455
-0.120225
0.126408
0.130481
0.138546
0.147432
0.156483
0.165348
0.172091
0.178479
0.1815
0.18438
0.183933
0.183447
0.17992
0.176464
0.17044
0.164813
0.157669
0.151398
0.14503
0.139973
0.135941
0.133517
0.132704
0.132745
0.133797
0.134407
0.134825
0.134647
0.134121
0.132869
0.131357
0.129002
0.126488
0.123032
0.119527
0.114998
0.110538
0.104993
0.0996385
0.0931584
0.0869911
0.0796806
0.0728049
0.0647896
0.0573284
0.0487532
0.0408468
0.031872
0.0236736
0.014471
0.00614232
-0.00311004
-0.011403
-0.020527
-0.0286215
-0.0374442
-0.0451853
-0.0535447
-0.0607898
-0.0685385
-0.0751618
-0.0821712
-0.0880649
-0.094226
-0.0993028
-0.104528
-0.108721
-0.112947
-0.116209
-0.119393
-0.1217
-0.123823
-0.125171
-0.126238
-0.126645
-0.126895
-0.126619
-0.127275
-0.128595
-0.131412
-0.135608
-0.140775
-0.147071
-0.153281
-0.160222
-0.165719
-0.171491
-0.174807
-0.178076
-0.178438
-0.178644
-0.175699
-0.172522
-0.166178
-0.159424
-0.150623
-0.141537
-0.132506
-0.124066
-0.119836
0.126029
0.130101
0.137719
0.146681
0.155777
0.164827
0.171775
0.178381
0.18165
0.184765
0.18457
0.1843
0.181045
0.177763
0.171945
0.166486
0.159408
0.153325
0.146912
0.142029
0.137924
0.135606
0.134822
0.134873
0.136095
0.136703
0.137092
0.136897
0.136343
0.135059
0.133503
0.131101
0.128528
0.125011
0.121433
0.116829
0.112282
0.10665
0.101196
0.0946179
0.0883407
0.0809225
0.073928
0.0657973
0.0582102
0.0495135
0.041476
0.0323756
0.0240427
0.0147123
0.00624783
-0.00313278
-0.0115609
-0.0208116
-0.0290387
-0.0379847
-0.0458541
-0.0543315
-0.0616987
-0.0695585
-0.0762959
-0.0834075
-0.0894056
-0.0956588
-0.100829
-0.106135
-0.110408
-0.114702
-0.118031
-0.121269
-0.123628
-0.125791
-0.127177
-0.12827
-0.128713
-0.128975
-0.128554
-0.129213
-0.130513
-0.133244
-0.137513
-0.142527
-0.148869
-0.154909
-0.161793
-0.167138
-0.172722
-0.175879
-0.178896
-0.179059
-0.179034
-0.175873
-0.172471
-0.165929
-0.158989
-0.150022
-0.140903
-0.131805
-0.123828
-0.119601
0.12576
0.12983
0.136808
0.145757
0.154894
0.163925
0.171301
0.177899
0.181901
0.185027
0.185603
0.185362
0.182836
0.179599
0.174469
0.169065
0.162575
0.156551
0.150541
0.145706
0.141812
0.139523
0.138654
0.13871
0.139726
0.140333
0.140637
0.140442
0.139801
0.138518
0.136828
0.134427
0.131675
0.128158
0.124355
0.119754
0.114941
0.109311
0.103554
0.0969779
0.0903652
0.0829494
0.0755922
0.0674641
0.0594925
0.0507986
0.0423607
0.0332633
0.0245201
0.0151927
0.00631381
-0.00306378
-0.0119045
-0.0211522
-0.0297844
-0.0387275
-0.0469887
-0.0554633
-0.0632032
-0.0710604
-0.078146
-0.0852554
-0.0915717
-0.097823
-0.103277
-0.108581
-0.1131
-0.117392
-0.120924
-0.124161
-0.126679
-0.128842
-0.13034
-0.131433
-0.131986
-0.132248
-0.132047
-0.1327
-0.134112
-0.136816
-0.140922
-0.14589
-0.15188
-0.157866
-0.164214
-0.169507
-0.174457
-0.177573
-0.179919
-0.180054
-0.179324
-0.176152
-0.172084
-0.165548
-0.158218
-0.149267
-0.14012
-0.131033
-0.123777
-0.119551
0.125357
0.129425
0.13569
0.144626
0.153984
0.162994
0.17079
0.177378
0.182172
0.185309
0.186719
0.186508
0.184771
0.18158
0.177194
0.171851
0.165996
0.160035
0.154459
0.149677
0.146011
0.143752
0.142792
0.142853
0.143646
0.144254
0.144465
0.14427
0.143536
0.142253
0.140419
0.138019
0.135072
0.131557
0.127512
0.122912
0.117812
0.112184
0.1061
0.0995263
0.0925514
0.0851382
0.0773893
0.069264
0.0608772
0.0521864
0.0433162
0.0342219
0.0250356
0.0157115
0.00638505
-0.00298927
-0.0122756
-0.0215201
-0.0305897
-0.0395297
-0.0482138
-0.0566855
-0.0648278
-0.0726823
-0.0801439
-0.0872507
-0.0939109
-0.10016
-0.10592
-0.111223
-0.116006
-0.120297
-0.124048
-0.127284
-0.129974
-0.132136
-0.133757
-0.134849
-0.13552
-0.135782
-0.135818
-0.136467
-0.137999
-0.140675
-0.144602
-0.149522
-0.155131
-0.161059
-0.166828
-0.172065
-0.176331
-0.179402
-0.181023
-0.181129
-0.179638
-0.176453
-0.171665
-0.165135
-0.15743
-0.148497
-0.139168
-0.130093
-0.123606
-0.119382
0.123121
0.127185
0.134238
0.143155
0.153249
0.162245
0.170991
0.177593
0.183196
0.18637
0.188618
0.18846
0.187472
0.184349
0.180481
0.175211
0.169636
0.163743
0.158297
0.153566
0.149968
0.147737
0.146937
0.147003
0.148005
0.148612
0.148843
0.148648
0.147823
0.14654
0.144553
0.142154
0.138993
0.13548
0.131163
0.126564
0.121139
0.115513
0.109054
0.102483
0.0950904
0.0876799
0.0794766
0.0713544
0.0624839
0.0537963
0.0444207
0.0353299
0.0256246
0.0163039
0.00645298
-0.00291782
-0.012726
-0.0219671
-0.0315478
-0.0404845
-0.0496613
-0.0581298
-0.0667387
-0.0745903
-0.0824853
-0.0895895
-0.0966437
-0.10289
-0.108999
-0.1143
-0.119381
-0.12367
-0.127667
-0.130901
-0.133778
-0.135939
-0.137688
-0.13878
-0.139476
-0.139738
-0.139617
-0.140261
-0.141678
-0.144328
-0.148224
-0.153097
-0.158613
-0.164477
-0.17001
-0.175178
-0.178982
-0.181989
-0.182924
-0.182978
-0.180712
-0.17749
-0.171962
-0.165416
-0.156855
-0.14793
-0.137942
-0.128883
-0.121549
-0.117328
0.120718
0.124782
0.132637
0.141581
0.152434
0.161401
0.171214
0.177832
0.184369
0.187583
0.190721
0.190622
0.190428
0.187377
0.184064
0.178874
0.173559
0.167738
0.16236
0.157683
0.154105
0.151906
0.151352
0.151423
0.152719
0.153325
0.153583
0.153389
0.152466
0.151184
0.149032
0.146634
0.143242
0.139729
0.135118
0.130522
0.124744
0.11912
0.112256
0.105687
0.0978416
0.0904342
0.0817385
0.0736195
0.0642248
0.0555408
0.0456174
0.0365302
0.0262623
0.0169454
0.00652585
-0.00284115
-0.0132152
-0.0224524
-0.0325873
-0.0415203
-0.051231
-0.0596961
-0.0688106
-0.076659
-0.0850236
-0.0921249
-0.0996058
-0.10585
-0.112336
-0.117635
-0.123039
-0.127327
-0.131587
-0.13482
-0.137899
-0.140059
-0.141947
-0.143039
-0.143755
-0.144017
-0.143668
-0.144307
-0.145532
-0.148153
-0.152062
-0.156884
-0.162367
-0.168164
-0.173482
-0.178575
-0.181884
-0.184821
-0.18503
-0.185027
-0.181938
-0.178675
-0.172289
-0.165724
-0.156197
-0.147299
-0.136622
-0.127544
-0.119344
-0.115124
0.118883
0.122934
0.130776
0.139913
0.150734
0.160305
0.17019
0.177607
0.1843
0.188404
0.191664
0.192463
0.192398
0.190184
0.187013
0.182521
0.177315
0.171989
0.166679
0.162291
0.15876
0.1567
0.156218
0.156343
0.157675
0.158259
0.158519
0.158237
0.157307
0.155876
0.153712
0.151106
0.147697
0.143918
0.139286
0.134368
0.128565
0.12257
0.115677
0.108694
0.100816
0.0929565
0.0842261
0.0756247
0.0661931
0.0570038
0.0470419
0.0374345
0.027127
0.0172825
0.00682295
-0.00307154
-0.0134853
-0.0232426
-0.0334164
-0.042855
-0.0526032
-0.0615527
-0.0707027
-0.0790079
-0.0874057
-0.0949299
-0.102441
-0.109068
-0.115581
-0.121218
-0.126646
-0.131222
-0.135501
-0.138969
-0.142063
-0.144402
-0.146299
-0.147511
-0.148229
-0.148548
-0.148169
-0.148791
-0.149956
-0.15248
-0.156351
-0.160935
-0.166359
-0.17172
-0.176939
-0.181401
-0.18458
-0.186751
-0.18684
-0.18601
-0.182804
-0.178723
-0.172189
-0.164894
-0.155297
-0.145854
-0.135203
-0.125964
-0.117776
-0.113577
0.116901
0.120938
0.128766
0.138112
0.148898
0.159122
0.168983
0.177361
0.184057
0.189239
0.192528
0.194408
0.194394
0.193182
0.190081
0.186421
0.181295
0.176567
0.171331
0.167306
0.163828
0.161953
0.161492
0.161683
0.163015
0.163573
0.163833
0.16345
0.16252
0.160917
0.158754
0.155904
0.152497
0.148407
0.143777
0.138485
0.132685
0.126259
0.119368
0.111902
0.104028
0.0956424
0.086916
0.077753
0.0683258
0.0585484
0.0485912
0.0383781
0.0280755
0.0176167
0.0071621
-0.00334653
-0.0137553
-0.0241181
-0.0342871
-0.0443143
-0.0540579
-0.0635714
-0.0727171
-0.081554
-0.0899478
-0.0979644
-0.105472
-0.112546
-0.119055
-0.125087
-0.130511
-0.135424
-0.139701
-0.143443
-0.146535
-0.149081
-0.150978
-0.15233
-0.153047
-0.153434
-0.153055
-0.153657
-0.154802
-0.157196
-0.161018
-0.165302
-0.170657
-0.175494
-0.180637
-0.184348
-0.187459
-0.188714
-0.188752
-0.186927
-0.183692
-0.178618
-0.172077
-0.163905
-0.154326
-0.144293
-0.133672
-0.124257
-0.116082
-0.111907
0.114761
0.118783
0.126596
0.136167
0.146915
0.157845
0.16768
0.177095
0.183794
0.190142
0.193461
0.196509
0.19655
0.196418
0.193393
0.190633
0.185593
0.18151
0.176353
0.172722
0.169301
0.167625
0.167187
0.167451
0.168782
0.169312
0.169572
0.169079
0.16815
0.16636
0.164198
0.161085
0.15768
0.153255
0.148627
0.142931
0.137134
0.130241
0.123355
0.115367
0.107497
0.0985427
0.0898208
0.0800512
0.0706289
0.0602163
0.0502643
0.039397
0.0290997
0.0179776
0.00752832
-0.00364347
-0.014047
-0.0250636
-0.0352273
-0.0458902
-0.0556288
-0.0657512
-0.0748923
-0.0843034
-0.0926929
-0.101241
-0.108745
-0.116301
-0.122807
-0.129264
-0.134686
-0.139961
-0.144236
-0.148273
-0.151364
-0.154135
-0.156031
-0.157533
-0.15825
-0.15871
-0.15833
-0.158911
-0.160034
-0.162289
-0.166058
-0.170018
-0.175298
-0.179569
-0.184631
-0.18753
-0.190568
-0.190834
-0.190818
-0.187918
-0.18465
-0.178505
-0.171956
-0.162836
-0.153276
-0.142608
-0.132018
-0.122415
-0.114253
-0.110103
0.113129
0.11714
0.124313
0.13389
0.144572
0.155713
0.165887
0.175703
0.183121
0.189951
0.194074
0.197619
0.198504
0.198849
0.196722
0.19438
0.190189
0.186434
0.181917
0.178515
0.175459
0.173911
0.173461
0.173763
0.174875
0.175393
0.175534
0.174999
0.17395
0.172088
0.16976
0.166547
0.16293
0.158375
0.153495
0.147643
0.141553
0.134481
0.127267
0.119078
0.110852
0.101678
0.0925756
0.0825728
0.0727513
0.0620946
0.0517312
0.0406126
0.0298974
0.0185204
0.00765219
-0.00377441
-0.0145927
-0.0258605
-0.0364304
-0.0473375
-0.0574688
-0.0678253
-0.0773414
-0.0869732
-0.0957159
-0.104469
-0.112299
-0.12004
-0.126844
-0.133464
-0.139148
-0.144563
-0.149062
-0.153214
-0.156487
-0.159344
-0.161378
-0.162939
-0.163792
-0.164279
-0.164126
-0.164693
-0.165854
-0.168011
-0.171469
-0.175234
-0.179944
-0.183923
-0.188212
-0.190732
-0.192942
-0.192769
-0.191975
-0.188614
-0.18461
-0.178018
-0.17081
-0.161319
-0.151442
-0.140577
-0.130054
-0.120443
-0.11303
-0.108894
0.110706
0.114712
0.12128
0.130821
0.141962
0.153042
0.16402
0.173794
0.182421
0.189244
0.194782
0.198353
0.200679
0.20108
0.200348
0.198088
0.195161
0.191499
0.18796
0.184639
0.182172
0.180672
0.180247
0.180557
0.18145
0.181969
0.181957
0.181422
0.180176
0.178315
0.175706
0.172494
0.168517
0.163965
0.158648
0.1528
0.146204
0.139136
0.131354
0.123171
0.114324
0.105156
0.0953896
0.0853928
0.0748751
0.0642248
0.0531429
0.042031
0.0305855
0.0192152
0.00761462
-0.00380516
-0.0153486
-0.0266097
-0.0378888
-0.0487894
-0.0596061
-0.0699563
-0.0801258
-0.0897519
-0.0991088
-0.107856
-0.116254
-0.123991
-0.131307
-0.137924
-0.14406
-0.149472
-0.154355
-0.158505
-0.162089
-0.164945
-0.167212
-0.168772
-0.169813
-0.1703
-0.170391
-0.17095
-0.172139
-0.174249
-0.177214
-0.180904
-0.18475
-0.18864
-0.191789
-0.194229
-0.195165
-0.194937
-0.192815
-0.189426
-0.184117
-0.177528
-0.169212
-0.159754
-0.149141
-0.138327
-0.127399
-0.117821
-0.111055
-0.106924
0.105953
0.10995
0.11739
0.126933
0.139032
0.150086
0.162705
0.172435
0.182612
0.189454
0.196506
0.20013
0.203942
0.20442
0.204953
0.202796
0.200718
0.19716
0.194089
0.190849
0.18863
0.187179
0.187184
0.187502
0.188796
0.189314
0.189289
0.188754
0.187307
0.185447
0.182537
0.179327
0.174952
0.170402
0.164596
0.158751
0.151582
0.144518
0.136088
0.127909
0.118349
0.109186
0.0986545
0.0886628
0.0773388
0.0666939
0.0547775
0.0436713
0.0313758
0.0200114
0.00755795
-0.00385592
-0.0162434
-0.0274987
-0.0396019
-0.0504969
-0.0621074
-0.0724523
-0.0833761
-0.0929972
-0.10306
-0.111803
-0.120849
-0.128581
-0.136481
-0.143094
-0.14974
-0.155149
-0.160461
-0.164608
-0.168533
-0.171388
-0.173903
-0.175462
-0.176575
-0.177062
-0.176837
-0.177387
-0.178228
-0.180294
-0.183081
-0.186694
-0.190159
-0.193951
-0.196362
-0.198702
-0.198498
-0.198194
-0.1947
-0.191256
-0.184534
-0.17792
-0.168165
-0.158742
-0.146627
-0.135835
-0.124026
-0.114451
-0.106717
-0.102594
0.101999
0.105907
0.11332
0.122997
0.135016
0.146822
0.159363
0.170334
0.180509
0.188819
0.195894
0.201107
0.204974
0.207068
0.207705
0.207041
0.205091
0.202742
0.199779
0.197357
0.195216
0.194182
0.194237
0.194666
0.195942
0.196376
0.196351
0.195623
0.194178
0.192034
0.189126
0.185546
0.181174
0.176171
0.170369
0.163995
0.156831
0.14917
0.140746
0.131911
0.122358
0.11249
0.101965
0.0912302
0.0799141
0.0684988
0.0565908
0.044698
0.0324111
0.0202546
0.00780984
-0.0043917
-0.0167706
-0.0288
-0.0408948
-0.0525419
-0.0641444
-0.0752117
-0.0861278
-0.0964343
-0.10649
-0.115873
-0.124913
-0.133235
-0.141129
-0.148271
-0.154913
-0.160785
-0.166093
-0.17063
-0.174552
-0.177716
-0.18023
-0.182012
-0.183125
-0.183731
-0.183519
-0.184008
-0.184804
-0.186531
-0.189248
-0.192153
-0.195518
-0.198229
-0.200519
-0.2015
-0.201194
-0.199397
-0.195847
-0.190924
-0.184174
-0.176192
-0.166431
-0.155852
-0.143802
-0.132312
-0.120572
-0.11089
-0.10318
-0.0991565
0.0977293
0.10154
0.108931
0.118746
0.13068
0.143296
0.155754
0.168064
0.178192
0.188128
0.195198
0.202162
0.206064
0.209926
0.210634
0.211611
0.209756
0.208743
0.205877
0.204369
0.202301
0.201743
0.201829
0.202384
0.203659
0.204003
0.203978
0.203041
0.201596
0.199147
0.196241
0.19226
0.187892
0.1824
0.176602
0.169657
0.162499
0.154193
0.145776
0.136232
0.126686
0.116057
0.10554
0.0940026
0.082695
0.0704478
0.0585488
0.0458067
0.033529
0.0205173
0.00808185
-0.00497026
-0.0173398
-0.0302052
-0.0422909
-0.0547503
-0.0663439
-0.0781914
-0.0890993
-0.100146
-0.110193
-0.120269
-0.129302
-0.13826
-0.146148
-0.153862
-0.160499
-0.166871
-0.172175
-0.177132
-0.181052
-0.184549
-0.187061
-0.189085
-0.190197
-0.190932
-0.19072
-0.191139
-0.191905
-0.193248
-0.195895
-0.198008
-0.20128
-0.202799
-0.204996
-0.204482
-0.204105
-0.200675
-0.197085
-0.190532
-0.18378
-0.174283
-0.164559
-0.152731
-0.140751
-0.128507
-0.116841
-0.107049
-0.0993599
-0.0954446
0.0942979
0.0980854
0.104586
0.114337
0.125936
0.138577
0.151255
0.16375
0.174931
0.18515
0.193607
0.200913
0.206368
0.21061
0.213043
0.214407
0.214318
0.213658
0.212286
0.211053
0.209935
0.209535
0.209706
0.210299
0.211159
0.211485
0.211208
0.210232
0.208539
0.206032
0.202813
0.198758
0.194013
0.188431
0.1822
0.17515
0.167508
0.159083
0.150138
0.140464
0.130354
0.119585
0.108476
0.096792
0.0848711
0.0724726
0.0599481
0.0470516
0.0341439
0.0209768
0.0079131
-0.00529342
-0.0182831
-0.0313002
-0.0439927
-0.0565996
-0.068782
-0.0807712
-0.0922449
-0.103426
-0.114012
-0.124213
-0.133752
-0.142825
-0.15118
-0.159
-0.166058
-0.172523
-0.178199
-0.183233
-0.187469
-0.191028
-0.193792
-0.195861
-0.197226
-0.197985
-0.19818
-0.198574
-0.199298
-0.200505
-0.202313
-0.204182
-0.206104
-0.207301
-0.207873
-0.207001
-0.205018
-0.201231
-0.196195
-0.189316
-0.181275
-0.171508
-0.160793
-0.148786
-0.136564
-0.124286
-0.112922
-0.103184
-0.0965594
-0.0926685
0.0870638
0.0908402
0.0975505
0.107248
0.119967
0.132474
0.147
0.159391
0.17241
0.18258
0.193024
0.200331
0.207893
0.212181
0.216647
0.218096
0.219723
0.219166
0.219048
0.217905
0.217556
0.217212
0.217875
0.218478
0.219584
0.219909
0.219498
0.218523
0.21652
0.214015
0.210381
0.20633
0.20107
0.195493
0.188656
0.181612
0.17328
0.164863
0.155156
0.145491
0.134557
0.123798
0.111817
0.100144
0.0873161
0.0749284
0.0614746
0.0485895
0.0347427
0.0215872
0.00758692
-0.00560799
-0.0195214
-0.0325271
-0.0461206
-0.0587164
-0.0717685
-0.0837472
-0.0960517
-0.107223
-0.118593
-0.128786
-0.139055
-0.148121
-0.157144
-0.164957
-0.172614
-0.179072
-0.185267
-0.190297
-0.194962
-0.198518
-0.201616
-0.203683
-0.205213
-0.205971
-0.205968
-0.206352
-0.206665
-0.207818
-0.208981
-0.210761
-0.211588
-0.212684
-0.211715
-0.210756
-0.206903
-0.203063
-0.196047
-0.189158
-0.179233
-0.1695
-0.157052
-0.145129
-0.13117
-0.119012
-0.106578
-0.096894
-0.08993
-0.0860497
0.0804446
0.0840099
0.0906977
0.100312
0.112896
0.12604
0.140514
0.154122
0.16719
0.178988
0.189501
0.19871
0.206392
0.21275
0.217403
0.220931
0.222764
0.224044
0.224096
0.224297
0.224067
0.22443
0.225161
0.225914
0.22699
0.227158
0.226741
0.225489
0.223471
0.220613
0.216959
0.212481
0.207197
0.201128
0.194262
0.186667
0.178303
0.169282
0.15954
0.149228
0.138257
0.126816
0.114796
0.102414
0.0895459
0.0764329
0.0629379
0.0493188
0.0354305
0.0215403
0.00749875
-0.00642446
-0.0203784
-0.0340996
-0.0477325
-0.0610252
-0.0741156
-0.0867673
-0.0991084
-0.110924
-0.122329
-0.133132
-0.143433
-0.153069
-0.162123
-0.170459
-0.178143
-0.185072
-0.191291
-0.196731
-0.201416
-0.205312
-0.208426
-0.210758
-0.212294
-0.213204
-0.213224
-0.213483
-0.213733
-0.214265
-0.21532
-0.215894
-0.216563
-0.215979
-0.214816
-0.211922
-0.207886
-0.202093
-0.194953
-0.186253
-0.176251
-0.164954
-0.152446
-0.139334
-0.125409
-0.112606
-0.10029
-0.0906852
-0.0837405
-0.0800782
0.0738932
0.0772999
0.0837012
0.0931826
0.105368
0.118888
0.133155
0.147679
0.160988
0.174058
0.185041
0.195748
0.204055
0.212055
0.217492
0.222681
0.225393
0.228156
0.22901
0.230318
0.230631
0.231589
0.232422
0.233306
0.234177
0.234222
0.233685
0.23222
0.230088
0.226956
0.223175
0.218369
0.212947
0.206498
0.199485
0.191463
0.182945
0.173458
0.163556
0.152744
0.141609
0.129642
0.117455
0.104527
0.0914905
0.0778186
0.0641547
0.04997
0.0359136
0.0214573
0.00724884
-0.00723544
-0.0213543
-0.0356266
-0.0494221
-0.0632517
-0.0765016
-0.089672
-0.102169
-0.114481
-0.126037
-0.13731
-0.147758
-0.157833
-0.167026
-0.175766
-0.183582
-0.190874
-0.197213
-0.202969
-0.207763
-0.211922
-0.21513
-0.217667
-0.219302
-0.22033
-0.220529
-0.220679
-0.220833
-0.220839
-0.22139
-0.220969
-0.220887
-0.218944
-0.216946
-0.212503
-0.207712
-0.200366
-0.192621
-0.182491
-0.172027
-0.159506
-0.146737
-0.132722
-0.118944
-0.105746
-0.0937829
-0.0842955
-0.0777207
-0.074222
0.065094
0.0684873
0.0741417
0.0834992
0.0961581
0.109452
0.124919
0.139229
0.154192
0.1671
0.180168
0.190772
0.201491
0.209447
0.217487
0.222688
0.227943
0.230758
0.233745
0.235117
0.236832
0.237834
0.239176
0.240067
0.240859
0.240904
0.240071
0.238607
0.236098
0.23297
0.228747
0.223945
0.218024
0.211582
0.204019
0.196006
0.186895
0.177419
0.166888
0.156089
0.144297
0.132343
0.119478
0.106565
0.0928366
0.0791799
0.064817
0.0506481
0.0358915
0.0214513
0.00654716
-0.00792103
-0.0227262
-0.0369826
-0.0514506
-0.0652648
-0.0791696
-0.0923253
-0.105456
-0.117754
-0.129918
-0.141179
-0.152205
-0.162269
-0.172005
-0.180736
-0.189054
-0.196337
-0.203131
-0.20888
-0.21407
-0.218226
-0.221764
-0.224298
-0.226181
-0.227207
-0.227448
-0.227588
-0.227272
-0.227231
-0.226514
-0.226024
-0.223987
-0.221983
-0.217612
-0.213145
-0.205879
-0.198561
-0.188488
-0.17844
-0.165944
-0.153561
-0.139148
-0.125322
-0.110303
-0.0973089
-0.084818
-0.0754454
-0.0695739
-0.066088
0.0554166
0.0584682
0.0641547
0.0731308
0.085576
0.0991044
0.114604
0.129751
0.144858
0.159133
0.172394
0.184781
0.195782
0.205845
0.214264
0.221736
0.227388
0.232345
0.235659
0.23868