/*--------------------------------*- C++ -*----------------------------------*\
| =========                 |                                                 |
| \\      /  F ield         | OpenFOAM: The Open Source CFD Toolbox           |
|  \\    /   O peration     | Version:  v2106                                 |
|   \\  /    A nd           | Website:  www.openfoam.com                      |
|    \\/     M anipulation  |                                                 |
\*---------------------------------------------------------------------------*/
FoamFile
{
    version     2.0;
    format      ascii;
    arch        "LSB;label=32;scalar=64";
    class       volScalarField;
    location    "0";
    object      expGpCoeffs15;
}
// * * * * * * * * * * * * * * * * * * * * * * * * * * * * * * * * * * * * * //

dimensions      [0 0 0 0 0 0 0];

internalField   nonuniform List<scalar> 
8000
(
0.0668469
0.0687934
0.0714912
0.0743111
0.0760311
0.0768521
0.0769457
0.0764714
0.0756907
0.0746199
0.0732707
0.0716372
0.0696291
0.0672446
0.0645488
0.0615438
0.0585636
0.0556077
0.0531253
0.0511302
0.0499522
0.0496117
0.0500565
0.0512928
0.0528922
0.0548439
0.0568239
0.0588217
0.0607732
0.0626774
0.0645285
0.0663258
0.0680653
0.0697464
0.0713663
0.0729245
0.0744185
0.0758479
0.0772094
0.0785026
0.0797231
0.0808701
0.0819377
0.0829251
0.0838249
0.0846364
0.0853515
0.0859695
0.0864831
0.0868915
0.0871891
0.0873756
0.0874481
0.0874065
0.0872514
0.086983
0.0866052
0.0861187
0.0855301
0.0848402
0.0840574
0.0831827
0.0822251
0.0811856
0.0800728
0.0788877
0.0776379
0.0763243
0.074953
0.073525
0.0720452
0.0705146
0.0689375
0.0673146
0.0657024
0.0641104
0.0628316
0.0618761
0.0616298
0.0620856
0.0633118
0.0652893
0.0678032
0.0708442
0.0741109
0.0776152
0.0810893
0.0845421
0.0878657
0.0910532
0.0940746
0.096922
0.0993756
0.101416
0.102543
0.102541
0.101182
0.0981926
0.0951604
0.0928904
0.0666901
0.0686363
0.071576
0.074397
0.0761035
0.0769269
0.0769757
0.0765021
0.0757095
0.0746389
0.073299
0.0716658
0.0696639
0.0672795
0.0645675
0.0615622
0.0585447
0.0555881
0.0530696
0.0510737
0.0498758
0.0495348
0.050006
0.0512421
0.0528852
0.0548366
0.0568275
0.058825
0.0607774
0.0626814
0.0645332
0.0663302
0.0680703
0.0697511
0.0713715
0.0729295
0.0744239
0.0758531
0.0772152
0.0785082
0.0797293
0.0808761
0.0819445
0.0829317
0.0838324
0.0846438
0.0853597
0.0859777
0.0864919
0.0869002
0.0871983
0.0873847
0.0874573
0.0874157
0.0872604
0.086992
0.0866138
0.0861273
0.0855379
0.0848481
0.0840644
0.0831898
0.0822312
0.0811919
0.0800782
0.0788933
0.0776427
0.0763292
0.0749573
0.0735294
0.0720491
0.0705186
0.0689409
0.0673182
0.0656962
0.0641045
0.0627862
0.0618308
0.061561
0.0620173
0.0632579
0.0652361
0.0677727
0.0708146
0.0741068
0.077612
0.0811012
0.0845547
0.0878791
0.0910673
0.0940926
0.0969405
0.0994268
0.101466
0.10266
0.102654
0.101307
0.0983155
0.0949771
0.0927076
0.0665209
0.0684665
0.0716676
0.0744898
0.0761817
0.0770076
0.077008
0.0765353
0.0757299
0.0746594
0.0733296
0.0716967
0.0697014
0.0673173
0.0645878
0.0615821
0.0585244
0.0555669
0.0530094
0.0510127
0.0497932
0.0494517
0.0499515
0.0511874
0.0528776
0.0548287
0.0568314
0.0588286
0.060782
0.0626856
0.0645382
0.066335
0.0680756
0.0697562
0.0713771
0.0729348
0.0744298
0.0758587
0.0772214
0.0785142
0.079736
0.0808827
0.0819518
0.0829389
0.0838405
0.0846517
0.0853686
0.0859864
0.0865014
0.0869097
0.0872082
0.0873946
0.0874673
0.0874257
0.0872701
0.0870018
0.086623
0.0861366
0.0855463
0.0848566
0.0840719
0.0831974
0.0822379
0.0811987
0.0800841
0.0788993
0.0776479
0.0763346
0.0749619
0.0735342
0.0720532
0.070523
0.0689446
0.0673221
0.0656896
0.0640981
0.0627371
0.0617819
0.0614868
0.0619436
0.0631997
0.0651787
0.0677397
0.0707827
0.0741024
0.0776086
0.0811141
0.0845683
0.0878937
0.0910826
0.094112
0.0969605
0.099482
0.101521
0.102786
0.102777
0.101441
0.0984482
0.0947792
0.0925102
0.0663381
0.0682833
0.0717665
0.0745899
0.0762661
0.0770947
0.0770429
0.0765712
0.0757519
0.0746816
0.0733626
0.07173
0.069742
0.0673581
0.0646096
0.0616036
0.0585024
0.055544
0.0529444
0.0509469
0.0497041
0.0493619
0.0498927
0.0511283
0.0528693
0.0548202
0.0568356
0.0588325
0.0607869
0.0626903
0.0645436
0.0663401
0.0680814
0.0697617
0.0713831
0.0729406
0.0744361
0.0758648
0.0772281
0.0785207
0.0797432
0.0808898
0.0819598
0.0829467
0.0838493
0.0846604
0.0853781
0.0859959
0.0865116
0.0869198
0.0872189
0.0874053
0.0874781
0.0874365
0.0872807
0.0870124
0.0866329
0.0861466
0.0855555
0.0848658
0.0840801
0.0832057
0.0822451
0.081206
0.0800904
0.0789058
0.0776535
0.0763403
0.0749668
0.0735394
0.0720577
0.0705277
0.0689486
0.0673263
0.0656825
0.0640912
0.0626841
0.0617292
0.0614066
0.061864
0.0631369
0.0651167
0.0677041
0.0707482
0.0740977
0.077605
0.081128
0.0845831
0.0879094
0.091099
0.094133
0.0969822
0.0995418
0.101579
0.102923
0.102909
0.101586
0.0985915
0.0945655
0.0922971
0.0661407
0.0680854
0.0718733
0.0747084
0.0763573
0.0771888
0.0770806
0.0766099
0.0757757
0.0747056
0.0733983
0.0717659
0.0697857
0.0674021
0.0646332
0.0616268
0.0584786
0.0555193
0.0528742
0.0508758
0.0496079
0.0492651
0.0498291
0.0510645
0.0528604
0.054811
0.0568401
0.0588367
0.0607922
0.0626953
0.0645495
0.0663457
0.0680876
0.0697677
0.0713896
0.0729469
0.0744429
0.0758714
0.0772353
0.0785277
0.079751
0.0808974
0.0819683
0.0829552
0.0838587
0.0846697
0.0853884
0.0860061
0.0865227
0.0869308
0.0872304
0.0874168
0.0874897
0.0874482
0.087292
0.0870238
0.0866436
0.0861574
0.0855653
0.0848758
0.0840889
0.0832147
0.0822529
0.081214
0.0800972
0.0789129
0.0776595
0.0763466
0.0749722
0.073545
0.0720625
0.0705327
0.0689529
0.0673309
0.0656748
0.0640837
0.0626269
0.0616722
0.0613201
0.061778
0.063069
0.0650497
0.0676656
0.070711
0.0740925
0.077601
0.081143
0.0845989
0.0879263
0.0911168
0.0941556
0.0970055
0.0996062
0.101643
0.10307
0.103052
0.101756
0.0987463
0.0943347
0.0920669
0.0660541
0.0680063
0.0720365
0.0749003
0.0764918
0.0773695
0.077142
0.0767057
0.0758049
0.0747455
0.0734458
0.0718292
0.0698483
0.0674877
0.0646649
0.0616615
0.058453
0.0554926
0.0527984
0.050799
0.049504
0.0491604
0.0497605
0.0509955
0.0529106
0.0548641
0.0569065
0.0589061
0.0608626
0.0627687
0.0646237
0.0664228
0.0681653
0.0698481
0.0714705
0.0730303
0.0745269
0.0759577
0.0773221
0.0786166
0.0798405
0.0809887
0.0820604
0.0830484
0.0839529
0.0847648
0.0854844
0.0861024
0.0866199
0.0870277
0.0873278
0.0875139
0.0875869
0.0875444
0.0873881
0.0871185
0.0867377
0.0862499
0.085657
0.0849653
0.0841774
0.0833012
0.0823381
0.0812968
0.0801791
0.0789918
0.0777376
0.0764218
0.0750466
0.0736163
0.0721331
0.0706001
0.0690196
0.0673944
0.0657263
0.0641321
0.0625651
0.0616106
0.0612266
0.0616851
0.0629958
0.0649774
0.0676241
0.0706708
0.0740982
0.077605
0.081211
0.0846397
0.0879808
0.0911506
0.0942015
0.0970363
0.0997545
0.10174
0.103336
0.10325
0.102022
0.0989674
0.094253
0.0919747
0.0662301
0.0681929
0.0722235
0.0751075
0.0767038
0.0775989
0.0773787
0.0769588
0.0760658
0.0750295
0.0737375
0.0721577
0.0701847
0.0678741
0.0650598
0.06211
0.0588903
0.0559384
0.0532515
0.0512265
0.0499537
0.0495961
0.0502618
0.0515282
0.0535173
0.055505
0.057547
0.059581
0.0615372
0.0634769
0.0653316
0.0671633
0.0689055
0.0706193
0.0722414
0.07383
0.0753262
0.0767829
0.0781471
0.079464
0.0806877
0.0818542
0.0829258
0.0839277
0.084832
0.0856532
0.0863727
0.0869952
0.0875126
0.0879201
0.0882201
0.0884013
0.0884743
0.0884225
0.0882662
0.0879832
0.0876025
0.0870975
0.0865047
0.0857923
0.0850044
0.0841042
0.0831413
0.0820729
0.0809554
0.0797384
0.0784843
0.0771364
0.0757615
0.0742971
0.0728141
0.0712457
0.0696655
0.0680039
0.0663362
0.0647061
0.0630693
0.0620845
0.0616392
0.0621166
0.0634051
0.065431
0.0680679
0.0711448
0.074585
0.0780833
0.081679
0.0850941
0.0884248
0.0915758
0.094616
0.0974251
0.100133
0.102084
0.10367
0.103544
0.10231
0.0992183
0.0945033
0.0922085
0.0664201
0.0683943
0.0724253
0.0753313
0.0769328
0.0778467
0.0776342
0.0772321
0.0763475
0.0753362
0.0740525
0.0725124
0.070548
0.0682914
0.0654863
0.0625942
0.0593841
0.0564803
0.0538023
0.0518111
0.0505446
0.0502155
0.0508838
0.0521837
0.0541724
0.0561971
0.0582387
0.0603098
0.0622656
0.0642417
0.066096
0.067963
0.0697048
0.071452
0.0730738
0.0746934
0.0761894
0.077674
0.079038
0.080379
0.0816025
0.0827889
0.0838602
0.0848773
0.0857814
0.0866126
0.0873319
0.0879592
0.0884765
0.0888837
0.0891837
0.0893595
0.0894325
0.0893707
0.0892144
0.088917
0.0885364
0.0880127
0.08742
0.0866852
0.0858976
0.0849713
0.0840087
0.082911
0.0817937
0.0805445
0.0792907
0.0779081
0.0765334
0.0750323
0.0735496
0.0719429
0.070363
0.0686622
0.0669948
0.0653259
0.0636894
0.0626718
0.0622242
0.0626823
0.0639646
0.0659819
0.0686099
0.071681
0.0751107
0.0785997
0.0821844
0.0855848
0.0889043
0.0920349
0.0950636
0.097845
0.100541
0.102455
0.10403
0.103862
0.10262
0.0994891
0.0947735
0.0924609
0.0666253
0.0686119
0.0726433
0.0755729
0.07718
0.0781142
0.0779102
0.0775273
0.0766517
0.0756673
0.0743927
0.0728954
0.0709403
0.068742
0.0659468
0.0631172
0.0599175
0.0570655
0.054397
0.0524423
0.0511827
0.0508845
0.0515553
0.0528915
0.0548798
0.0569445
0.0589856
0.0610969
0.0630522
0.0650676
0.0669215
0.0688264
0.0705679
0.0723512
0.0739727
0.0756258
0.0771215
0.0786363
0.0799999
0.0813671
0.0825903
0.0837982
0.0848693
0.0859026
0.0868065
0.0876485
0.0883677
0.0890002
0.0895174
0.0899242
0.0902241
0.0903943
0.0904672
0.0903946
0.0902384
0.0899253
0.0895448
0.0890011
0.0884085
0.0876495
0.086862
0.0859077
0.0849452
0.083816
0.082699
0.081415
0.0801615
0.0787414
0.077367
0.0758261
0.0743438
0.0726957
0.0711161
0.069373
0.067706
0.0659952
0.0643591
0.063306
0.0628559
0.0632931
0.0645689
0.0665768
0.0691952
0.0722599
0.0756783
0.0791573
0.0827301
0.0861147
0.089422
0.0925307
0.0955469
0.0982983
0.100982
0.102855
0.104419
0.104204
0.102956
0.0997817
0.0950653
0.0927334
0.066847
0.0688468
0.0728787
0.0758338
0.0774469
0.0784031
0.0782082
0.077846
0.0769803
0.0760249
0.07476
0.0733091
0.071364
0.0692285
0.066444
0.0636819
0.0604933
0.0576973
0.0550392
0.0531239
0.0518717
0.0516068
0.0522805
0.0536559
0.0556437
0.0577515
0.0597921
0.0619467
0.0639015
0.0659594
0.0678129
0.0697589
0.0714999
0.0733223
0.0749434
0.0766327
0.078128
0.0796754
0.0810387
0.0824341
0.083657
0.0848881
0.0859589
0.0870098
0.0879135
0.0887672
0.0894862
0.0901243
0.0906414
0.0910478
0.0913477
0.0915116
0.0915846
0.0915003
0.091344
0.0910141
0.0906337
0.0900683
0.0894759
0.0886907
0.0879034
0.0869188
0.0859566
0.0847932
0.0836765
0.082355
0.0811018
0.0796412
0.0782671
0.0766833
0.0752014
0.0735087
0.0719294
0.0701406
0.068474
0.0667179
0.0650822
0.0639909
0.063538
0.0639527
0.0652213
0.0672191
0.0698272
0.072885
0.0762913
0.0797595
0.0833194
0.0866869
0.0899811
0.0930661
0.0960688
0.0987879
0.101458
0.103288
0.104839
0.104575
0.103318
0.100098
0.0953804
0.0930277
0.0670863
0.0691005
0.0731329
0.0761156
0.0777351
0.0787151
0.07853
0.0781901
0.077335
0.076411
0.0751566
0.0737557
0.0718214
0.0697539
0.066981
0.0642916
0.0611152
0.0583796
0.0557327
0.05386
0.0526157
0.0523868
0.0530636
0.0544812
0.0564686
0.058623
0.0606631
0.0628644
0.0648187
0.0669225
0.0687754
0.0707658
0.0725063
0.0743708
0.0759915
0.0777199
0.0792148
0.0807974
0.0821604
0.0835863
0.0848089
0.0860649
0.0871355
0.0882054
0.0891089
0.0899752
0.090694
0.0913382
0.0918551
0.0922612
0.0925609
0.0927182
0.0927911
0.0926942
0.092538
0.0921899
0.0918095
0.0912208
0.0906285
0.0898151
0.089028
0.0880106
0.0870487
0.0858485
0.084732
0.08337
0.0821171
0.0806128
0.0792391
0.077609
0.0761274
0.0743865
0.0728077
0.0709694
0.0693032
0.0674984
0.065863
0.0647304
0.0642746
0.0646649
0.0659259
0.0679128
0.0705097
0.07356
0.0769532
0.0804097
0.0839557
0.0873048
0.0905847
0.0936442
0.0966324
0.0993166
0.101972
0.103755
0.105293
0.104974
0.103708
0.100439
0.0957207
0.0933455
0.0673447
0.0693744
0.0734074
0.0764198
0.0780464
0.0790519
0.0788774
0.0785617
0.0777181
0.0768279
0.0755849
0.074238
0.0723154
0.0703212
0.0675608
0.0649501
0.0617867
0.0591164
0.0564815
0.0546548
0.0534192
0.0532291
0.0539092
0.0553725
0.0573593
0.059564
0.0616035
0.0638553
0.0658091
0.0679624
0.0698148
0.071853
0.0735931
0.0755031
0.0771233
0.078894
0.0803885
0.0820091
0.0833717
0.0848304
0.0860527
0.0873358
0.0884061
0.0894965
0.0903997
0.0912796
0.0919982
0.092649
0.0931658
0.0935714
0.0938711
0.0940211
0.094094
0.0939834
0.0938273
0.0934595
0.0930793
0.0924652
0.0918731
0.0910292
0.0902423
0.0891897
0.088228
0.086988
0.0858719
0.0844661
0.0832135
0.081662
0.0802887
0.0786086
0.0771274
0.0753344
0.073756
0.0718644
0.0701987
0.0683411
0.0667062
0.065529
0.06507
0.065434
0.0666867
0.0686618
0.0712466
0.074289
0.0776679
0.0811119
0.0846429
0.087972
0.0912366
0.0942685
0.097241
0.0998875
0.102527
0.104259
0.105783
0.105406
0.10413
0.100807
0.0960881
0.0936887
0.0679504
0.0699842
0.0738248
0.0768244
0.078515
0.0795022
0.0794019
0.0790792
0.0782649
0.0773986
0.0762051
0.0748922
0.0730426
0.0710903
0.0683936
0.0658491
0.062706
0.0601309
0.0574724
0.0557452
0.0544759
0.0543603
0.0550724
0.0565708
0.05869
0.0609293
0.0629983
0.0652849
0.0672762
0.0694635
0.0713526
0.0734238
0.0751992
0.0771405
0.0787939
0.0805936
0.0821185
0.0837652
0.0851545
0.086636
0.0878807
0.0891822
0.0902701
0.0913747
0.0922903
0.0931794
0.0939051
0.0945603
0.0950787
0.0954841
0.0957804
0.0959252
0.0959901
0.0958701
0.0957012
0.09532
0.0949228
0.0942914
0.0936784
0.0928136
0.0920022
0.090925
0.0899353
0.0886679
0.0875204
0.0860846
0.0847977
0.0832136
0.0818036
0.080089
0.0785692
0.0767403
0.075122
0.0731936
0.0714954
0.0696014
0.0678382
0.0666264
0.0661386
0.0664415
0.0677389
0.0696449
0.0722854
0.0752754
0.0786857
0.082111
0.0856228
0.0889527
0.0921554
0.0951755
0.0980847
0.100706
0.103289
0.105021
0.106416
0.106052
0.104672
0.101361
0.0968729
0.0944659
0.0689636
0.0709979
0.0742824
0.077288
0.0790788
0.0800831
0.0801552
0.0798573
0.0791411
0.0783011
0.0771866
0.0759
0.0741833
0.0722589
0.0697802
0.0672665
0.0643842
0.0618405
0.059401
0.0576996
0.056578
0.0564777
0.0572207
0.0587213
0.0608415
0.0630801
0.0652392
0.067525
0.0696306
0.0718172
0.0738181
0.0758886
0.0777715
0.0797122
0.0814667
0.0832658
0.0848831
0.0865293
0.088
0.0894809
0.090794
0.092095
0.0932364
0.0943406
0.095294
0.0961827
0.09693
0.097585
0.0981088
0.0985141
0.0988004
0.0989452
0.0989855
0.0988655
0.0986584
0.0982773
0.0978291
0.0971978
0.0965218
0.0956573
0.0947715
0.0936946
0.0926198
0.0913528
0.0901101
0.0886748
0.0872839
0.0857003
0.0841787
0.0824647
0.0808275
0.0789991
0.0772595
0.0753317
0.0735344
0.071641
0.0698648
0.0686509
0.0681404
0.0684288
0.0696466
0.0715275
0.0740893
0.0770463
0.0803693
0.0837582
0.0871944
0.0904873
0.0936328
0.0966152
0.0994392
0.102022
0.104419
0.106117
0.107215
0.106828
0.105288
0.101968
0.0981597
0.095752
0.0700018
0.0720367
0.074945
0.0779559
0.0797502
0.0807715
0.0809686
0.0806975
0.0800872
0.0792757
0.0782464
0.0769882
0.075415
0.0735207
0.0712776
0.0687972
0.0661965
0.0636865
0.0614836
0.0598101
0.058848
0.0587641
0.0595406
0.0610436
0.0631648
0.0654026
0.067659
0.069944
0.0721731
0.0743589
0.0764805
0.0785503
0.0805492
0.0824892
0.0843529
0.0861514
0.0878684
0.0895141
0.0910726
0.092553
0.0939398
0.0952404
0.0964396
0.0975434
0.0985374
0.0994259
0.100196
0.100851
0.101381
0.101786
0.102062
0.102206
0.10222
0.1021
0.101852
0.101471
0.100967
0.100336
0.0995922
0.0987281
0.0977618
0.0966853
0.0955185
0.094252
0.0929066
0.0914717
0.0899685
0.0883855
0.0867434
0.08503
0.083266
0.0814383
0.0795677
0.0776405
0.0757362
0.0738435
0.0720533
0.0708371
0.0703019
0.0705748
0.0717067
0.0735603
0.0760371
0.0789587
0.0821873
0.0855369
0.0888915
0.0921443
0.0952281
0.09817
0.100902
0.103443
0.10564
0.1073
0.108172
0.107762
0.106188
0.102862
0.0994831
0.0970746
0.0702234
0.0722577
0.0759674
0.0789918
0.0808333
0.0818867
0.0820132
0.0817763
0.0811849
0.0804065
0.0795103
0.0782861
0.07691
0.0750526
0.0729938
0.0705518
0.0680805
0.0656054
0.0634812
0.0618339
0.0609354
0.060866
0.061789
0.0632943
0.0656346
0.0678715
0.0702948
0.072579
0.0749457
0.0771307
0.0793861
0.0814551
0.0835823
0.0855216
0.0875058
0.0893036
0.091131
0.0927761
0.0944326
0.0959125
0.0973824
0.0986826
0.0999483
0.101052
0.102094
0.102982
0.103782
0.104436
0.104975
0.105381
0.105646
0.105791
0.105776
0.105656
0.105361
0.10498
0.104414
0.103784
0.102961
0.102098
0.10104
0.0999634
0.0986922
0.0974261
0.0959649
0.0945306
0.0929017
0.0913192
0.0895432
0.0878304
0.0859259
0.0840989
0.0820834
0.080157
0.0780798
0.0761879
0.0741783
0.0729599
0.0722891
0.0725481
0.0736595
0.0754879
0.0779883
0.0808747
0.0841372
0.0874448
0.0907978
0.0940056
0.0970325
0.0999282
0.102591
0.105085
0.10727
0.10888
0.10978
0.109325
0.107605
0.10426
0.0998461
0.0974381
0.0704709
0.0725082
0.0770035
0.0800306
0.0819959
0.0830565
0.0831425
0.0829428
0.0823771
0.0816347
0.0808842
0.0796969
0.0785347
0.0767173
0.074857
0.0724566
0.0701031
0.0676656
0.0655862
0.0639671
0.0631044
0.0630507
0.064169
0.0656767
0.0682995
0.0705355
0.0731423
0.0754256
0.0779411
0.0801253
0.0825254
0.0845936
0.0868594
0.0887979
0.0909123
0.0927094
0.0946563
0.0963007
0.0980631
0.0995424
0.101102
0.102402
0.10374
0.104843
0.105938
0.106825
0.107656
0.108311
0.10886
0.109265
0.10952
0.109665
0.109619
0.109499
0.109154
0.108774
0.10814
0.107509
0.106603
0.105739
0.104582
0.103506
0.102122
0.100856
0.0992695
0.0978357
0.0960709
0.0944891
0.0925681
0.090856
0.0887997
0.0869734
0.0848012
0.0828756
0.0806088
0.0787176
0.0764284
0.0752077
0.0743545
0.0745986
0.0757126
0.0775139
0.0800712
0.0829197
0.0862415
0.0895036
0.0928609
0.09602
0.0989871
0.101833
0.104426
0.106867
0.109033
0.110588
0.111462
0.110999
0.109019
0.105667
0.100252
0.0978401
0.0712698
0.073357
0.0778555
0.0809869
0.0829748
0.0841355
0.0842636
0.0841441
0.0836215
0.0829715
0.0822706
0.0812183
0.0801126
0.078485
0.0766859
0.0745068
0.0722068
0.0699747
0.0679348
0.0664754
0.0656447
0.0657234
0.0668976
0.0685499
0.0712236
0.073621
0.0762411
0.0786837
0.0812097
0.0835484
0.0859588
0.088174
0.0904496
0.092525
0.0946487
0.0965696
0.0985249
0.100278
0.102047
0.103617
0.105184
0.106554
0.107897
0.109051
0.110149
0.111068
0.111901
0.112567
0.113117
0.113515
0.113769
0.11389
0.113842
0.113683
0.113334
0.112901
0.112262
0.111565
0.110652
0.10971
0.108546
0.107379
0.105987
0.104618
0.103023
0.101474
0.0996998
0.0979917
0.0960603
0.0942113
0.092144
0.0901713
0.0879878
0.0859081
0.0836275
0.0815793
0.0792319
0.077883
0.076973
0.0771411
0.0782283
0.0799861
0.0825178
0.0853232
0.0886136
0.0918148
0.0951269
0.0982038
0.101117
0.103857
0.106393
0.108697
0.110797
0.11218
0.112987
0.112317
0.110307
0.106779
0.10136
0.0988741
0.0721325
0.0742736
0.0787755
0.0820196
0.0840318
0.0853006
0.0854664
0.085441
0.0849598
0.084416
0.0837564
0.082861
0.0817977
0.0803916
0.0786376
0.07672
0.0744658
0.0724846
0.0704854
0.0692342
0.0684323
0.0686906
0.0698762
0.0717124
0.074385
0.0769704
0.0795892
0.0822173
0.0847422
0.0872606
0.0896699
0.0920563
0.0943309
0.0965655
0.0986882
0.100753
0.102708
0.104586
0.106355
0.10803
0.109596
0.111049
0.112391
0.113605
0.114702
0.115657
0.11649
0.117169
0.117718
0.118108
0.118362
0.118456
0.118408
0.118203
0.117855
0.11736
0.116721
0.115948
0.115035
0.114002
0.112838
0.111566
0.110174
0.108686
0.107091
0.10541
0.103636
0.101781
0.0998502
0.0978418
0.0957755
0.0936325
0.09145
0.0891908
0.0869114
0.0846803
0.0823339
0.0808222
0.0799008
0.07996
0.081018
0.0827099
0.0851982
0.0879497
0.0911872
0.0943215
0.0975766
0.100563
0.103418
0.106038
0.108516
0.11066
0.112702
0.113879
0.114634
0.11374
0.111697
0.10798
0.102556
0.0999907
0.073064
0.0752634
0.079769
0.0831348
0.0851732
0.0865588
0.0867652
0.0868415
0.0864049
0.085976
0.0853608
0.0846348
0.0836173
0.0824504
0.0807452
0.0791099
0.0769051
0.0751949
0.0732396
0.0722132
0.0714424
0.0718946
0.0730927
0.0751275
0.0777989
0.0805872
0.0832047
0.086033
0.0885566
0.0912693
0.0936773
0.0962486
0.098522
0.100929
0.10305
0.105271
0.107224
0.109239
0.111007
0.112796
0.11436
0.115903
0.117245
0.118522
0.119619
0.120612
0.121445
0.122138
0.122687
0.123069
0.123323
0.123386
0.123338
0.123085
0.122737
0.122175
0.121536
0.12068
0.119768
0.118637
0.117473
0.116087
0.114696
0.113079
0.111485
0.109659
0.107886
0.105872
0.103943
0.101762
0.0996969
0.0973699
0.0951886
0.0927357
0.0904574
0.0880289
0.0856835
0.0839962
0.0830623
0.083004
0.0840304
0.0856513
0.0880927
0.0907858
0.0939662
0.0970283
0.100222
0.10311
0.105903
0.108393
0.110808
0.11278
0.114759
0.115713
0.116412
0.115276
0.113199
0.109277
0.103848
0.101196
0.074596
0.0768116
0.0805495
0.0839757
0.086185
0.0876581
0.0881194
0.0882671
0.0879759
0.0876239
0.0870942
0.0864668
0.0855606
0.0845211
0.0830196
0.0815331
0.0796135
0.0780547
0.0763879
0.075498
0.0749584
0.0755258
0.0768229
0.0789509
0.0816661
0.0845326
0.0872683
0.0901738
0.0928396
0.0956271
0.0981703
0.100813
0.103212
0.105684
0.107918
0.110199
0.11225
0.114316
0.116164
0.117997
0.119623
0.1212
0.122584
0.123886
0.125008
0.126016
0.126858
0.127556
0.1281
0.128478
0.128715
0.128766
0.128691
0.128419
0.128034
0.127447
0.126765
0.125876
0.124913
0.123743
0.122519
0.12109
0.119629
0.117962
0.116289
0.114407
0.112544
0.110469
0.108438
0.106191
0.104012
0.101614
0.099309
0.0967814
0.0943985
0.0918938
0.0895127
0.0877429
0.0867593
0.0866189
0.0875317
0.089079
0.0913907
0.0940149
0.0970456
0.100036
0.103087
0.105894
0.108559
0.110955
0.113201
0.11506
0.116757
0.117579
0.117874
0.116589
0.114267
0.110254
0.105784
0.103108
0.0759522
0.0781682
0.081731
0.0851697
0.087476
0.0889851
0.0896348
0.0898325
0.0896994
0.0893998
0.0889947
0.0884188
0.0876941
0.0867078
0.0855084
0.084078
0.0825797
0.0810764
0.079864
0.0790202
0.0788742
0.0794692
0.0809625
0.0830943
0.0859362
0.088801
0.091765
0.0946688
0.0975788
0.100365
0.10314
0.105781
0.108394
0.110866
0.113293
0.115572
0.117789
0.119855
0.121841
0.123672
0.125404
0.12698
0.12844
0.129741
0.130908
0.131915
0.132773
0.133471
0.134007
0.134385
0.134592
0.134644
0.134521
0.134249
0.133803
0.133216
0.132457
0.131569
0.130516
0.129347
0.12802
0.126591
0.125011
0.123345
0.121535
0.119654
0.117635
0.115562
0.113355
0.11111
0.108737
0.10634
0.103822
0.101296
0.098708
0.0962048
0.0937235
0.0919494
0.0908586
0.0906893
0.0914051
0.0929018
0.0950226
0.0975807
0.100425
0.103343
0.106225
0.108958
0.111452
0.113773
0.115788
0.117573
0.118933
0.119687
0.119625
0.118294
0.115789
0.11176
0.107476
0.1048
0.0762481
0.0784702
0.0833167
0.0867775
0.0892994
0.0908443
0.0914809
0.0917358
0.0916304
0.0913895
0.0911397
0.0906221
0.0901507
0.0892257
0.0883146
0.0869475
0.0857113
0.0842667
0.0832653
0.082467
0.0825096
0.0831307
0.0850184
0.087154
0.090496
0.0933595
0.0966555
0.099558
0.10274
0.105524
0.108558
0.111197
0.11405
0.11652
0.119162
0.12144
0.123843
0.125908
0.128048
0.129878
0.131732
0.133307
0.134853
0.136153
0.137373
0.13838
0.13926
0.139958
0.140488
0.140866
0.141042
0.141094
0.140919
0.140647
0.14013
0.139543
0.138697
0.13781
0.136653
0.135485
0.134038
0.13261
0.130895
0.12923
0.127265
0.125385
0.123192
0.12112
0.118718
0.116474
0.113885
0.111489
0.108736
0.106211
0.103317
0.100815
0.0978527
0.0960746
0.0946472
0.0944507
0.0951246
0.0965722
0.0987217
0.101212
0.10408
0.106918
0.109738
0.112388
0.114719
0.116957
0.118782
0.120482
0.121694
0.12237
0.122146
0.120765
0.117854
0.113794
0.107898
0.105214
0.0774084
0.0797135
0.0845642
0.0882203
0.0907765
0.0925415
0.0932336
0.0936815
0.0936399
0.093561
0.093375
0.0930378
0.092631
0.0919533
0.0911118
0.0900757
0.0889113
0.0878477
0.0869123
0.0864872
0.0865833
0.0875391
0.0894739
0.0919259
0.0952854
0.098461
0.101755
0.104958
0.108137
0.111209
0.11424
0.117146
0.119996
0.122707
0.125347
0.127834
0.130236
0.132476
0.134614
0.136582
0.138435
0.140111
0.141656
0.143023
0.144243
0.145284
0.146164
0.146868
0.147398
0.147759
0.147936
0.147953
0.147778
0.147456
0.146939
0.146289
0.145444
0.144481
0.143325
0.142067
0.140622
0.139088
0.137374
0.135585
0.133622
0.131597
0.129406
0.127164
0.124764
0.122325
0.119738
0.117121
0.114369
0.111599
0.108706
0.105938
0.102946
0.100919
0.0994399
0.099051
0.0996731
0.100965
0.103048
0.105384
0.108173
0.110833
0.113565
0.115997
0.118239
0.120207
0.121943
0.123305
0.124426
0.124702
0.124404
0.122637
0.119682
0.115338
0.109438
0.106646
0.0786613
0.0810561
0.0859038
0.0897782
0.0923715
0.0943743
0.0951263
0.0957825
0.0958084
0.0959062
0.0957875
0.0956463
0.0953075
0.0948987
0.0941278
0.0934541
0.0923605
0.0917216
0.0908492
0.0908505
0.090992
0.0923364
0.0942894
0.0971
0.100457
0.10397
0.107261
0.110789
0.113966
0.117347
0.120375
0.123569
0.126418
0.129388
0.132026
0.134739
0.137139
0.139567
0.141704
0.143822
0.145673
0.147459
0.149003
0.150441
0.15166
0.152739
0.153618
0.15433
0.15486
0.155204
0.15538
0.155359
0.155185
0.154809
0.154292
0.153574
0.152729
0.151684
0.15053
0.149175
0.147731
0.146084
0.144371
0.142448
0.140487
0.138305
0.136115
0.133691
0.131293
0.128643
0.126058
0.123203
0.120453
0.117416
0.114526
0.111471
0.108481
0.106171
0.104672
0.104054
0.104625
0.10573
0.107738
0.109898
0.112596
0.115061
0.117696
0.119894
0.12204
0.123714
0.125354
0.126348
0.127377
0.127219
0.126844
0.124657
0.121656
0.116996
0.1111
0.108194
0.0809994
0.0834052
0.0869128
0.0908301
0.0937112
0.0958134
0.0970628
0.0978162
0.0981749
0.0983677
0.0984304
0.0983875
0.0982111
0.0979156
0.0974193
0.0968816
0.0962199
0.0957353
0.0953872
0.0955429
0.0961865
0.0976616
0.0998603
0.102759
0.106214
0.109789
0.113323
0.11691
0.120368
0.123806
0.127097
0.130344
0.13343
0.136448
0.139294
0.142049
0.144624
0.147087
0.149363
0.151508
0.153463
0.155269
0.156884
0.158335
0.159595
0.160681
0.161577
0.16229
0.162817
0.163158
0.163317
0.163289
0.163088
0.162702
0.16215
0.161419
0.160531
0.159471
0.158265
0.156893
0.155386
0.153718
0.151927
0.14998
0.147921
0.145711
0.1434
0.140942
0.138398
0.135709
0.13295
0.130051
0.127099
0.124013
0.12095
0.117842
0.114829
0.112449
0.110842
0.110123
0.11039
0.11138
0.113049
0.115087
0.117428
0.119768
0.122071
0.124138
0.125966
0.127498
0.128734
0.129573
0.130011
0.129695
0.128605
0.126272
0.122904
0.118187
0.113949
0.111029
0.0813254
0.0837296
0.0889076
0.0928422
0.0960266
0.0981761
0.09952
0.100356
0.100849
0.101124
0.10138
0.101418
0.101484
0.101271
0.101063
0.100609
0.100297
0.0998899
0.0999437
0.10016
0.101219
0.102729
0.105458
0.108362
0.112404
0.115976
0.119962
0.123547
0.127394
0.130828
0.134483
0.137727
0.141143
0.144159
0.147294
0.150046
0.152864
0.155325
0.157796
0.159938
0.16204
0.163844
0.165559
0.167009
0.168329
0.169413
0.170333
0.171046
0.171569
0.171909
0.172043
0.172015
0.171773
0.171387
0.170782
0.170051
0.1691
0.168041
0.166759
0.165388
0.163789
0.162123
0.160221
0.158276
0.156081
0.153873
0.151396
0.14894
0.146194
0.143508
0.140509
0.137613
0.134382
0.131299
0.127866
0.12476
0.121209
0.118823
0.116792
0.116031
0.116105
0.11702
0.118555
0.120492
0.122699
0.124924
0.127007
0.128956
0.13044
0.131856
0.132678
0.133402
0.133445
0.13302
0.131596
0.129207
0.125346
0.12061
0.114334
0.111416
0.0826251
0.085143
0.0903445
0.0945748
0.0978132
0.100336
0.101777
0.102964
0.103552
0.104116
0.104467
0.104755
0.104919
0.104975
0.10487
0.104755
0.104548
0.104565
0.104719
0.105407
0.106552
0.10852
0.111332
0.114663
0.118756
0.122734
0.126743
0.130714
0.13458
0.138379
0.142052
0.145631
0.149062
0.152376
0.155525
0.158534
0.161364
0.164036
0.166516
0.168825
0.170932
0.17286
0.174579
0.176113
0.177435
0.17857
0.179491
0.180228
0.18075
0.181095
0.181227
0.18119
0.180945
0.180539
0.179931
0.179171
0.178217
0.177118
0.175833
0.17441
0.172808
0.171071
0.169165
0.167126
0.164926
0.162595
0.160111
0.157499
0.154744
0.151865
0.148855
0.145726
0.142481
0.139126
0.135674
0.132256
0.128644
0.125932
0.123816
0.122752
0.122746
0.123369
0.124806
0.126436
0.128526
0.130402
0.132354
0.133888
0.135235
0.136155
0.136839
0.136984
0.136883
0.13584
0.134278
0.131334
0.127405
0.122305
0.116001
0.112961
0.0845771
0.0871716
0.091652
0.0961003
0.0995221
0.102359
0.104116
0.105607
0.106455
0.107274
0.10781
0.108321
0.108641
0.108933
0.109008
0.109189
0.109204
0.109595
0.109997
0.111107
0.112488
0.114867
0.117801
0.121494
0.12563
0.129921
0.134039
0.138308
0.142298
0.146379
0.150167
0.154005
0.157541
0.161086
0.164325
0.167533
0.170439
0.173275
0.175817
0.178255
0.180411
0.182434
0.18419
0.185789
0.187136
0.18831
0.189249
0.190004
0.190539
0.190887
0.191027
0.190982
0.190742
0.19032
0.189715
0.188932
0.187978
0.186849
0.18556
0.184096
0.182485
0.180695
0.178771
0.176661
0.174435
0.17201
0.169489
0.166757
0.163953
0.160924
0.157851
0.154542
0.151221
0.147654
0.144139
0.14048
0.13687
0.133883
0.131697
0.130346
0.130139
0.130474
0.131657
0.132996
0.134796
0.136357
0.138014
0.139186
0.140243
0.140735
0.141097
0.140748
0.140259
0.138694
0.136725
0.133322
0.129185
0.123814
0.118401
0.11528
0.085561
0.0881538
0.0934333
0.0979027
0.101744
0.104647
0.106858
0.108442
0.109725
0.110645
0.111541
0.112155
0.112783
0.113179
0.113568
0.113854
0.114268
0.114755
0.115673
0.116858
0.118819
0.121241
0.124734
0.128431
0.133086
0.137373
0.141977
0.146241
0.150684
0.154761
0.158969
0.162803
0.166719
0.17026
0.173831
0.177035
0.180221
0.183054
0.185823
0.188258
0.19059
0.192611
0.194495
0.196093
0.19753
0.198703
0.1997
0.200455
0.201025
0.201373
0.201533
0.201488
0.201257
0.200836
0.200232
0.19945
0.198488
0.19736
0.196051
0.194589
0.19294
0.191152
0.189166
0.187058
0.184736
0.182314
0.179659
0.17693
0.173946
0.170921
0.167619
0.164314
0.160712
0.15715
0.153289
0.149635
0.145615
0.14262
0.140014
0.138604
0.137985
0.138217
0.138988
0.140193
0.141553
0.142966
0.144104
0.145129
0.145546
0.145899
0.145511
0.145031
0.143743
0.142064
0.139382
0.135901
0.131232
0.125837
0.119532
0.116413
0.0865932
0.0893061
0.094837
0.0996493
0.103643
0.107033
0.109395
0.11151
0.112932
0.114321
0.115358
0.116361
0.11713
0.117871
0.118397
0.119035
0.119585
0.120476
0.121531
0.123174
0.125265
0.128154
0.1318
0.135938
0.140723
0.145424
0.150107
0.154762
0.15927
0.163715
0.167984
0.172157
0.176127
0.179971
0.18359
0.187058
0.190284
0.19334
0.196141
0.198759
0.201115
0.203281
0.205184
0.206894
0.208344
0.209604
0.210608
0.211429
0.212003
0.212402
0.212565
0.21256
0.21233
0.21194
0.211336
0.210576
0.209613
0.208495
0.207184
0.205716
0.204063