/*--------------------------------*- C++ -*----------------------------------*\
| =========                 |                                                 |
| \\      /  F ield         | OpenFOAM: The Open Source CFD Toolbox           |
|  \\    /   O peration     | Version:  v2106                                 |
|   \\  /    A nd           | Website:  www.openfoam.com                      |
|    \\/     M anipulation  |                                                 |
\*---------------------------------------------------------------------------*/
FoamFile
{
    version     2.0;
    format      ascii;
    arch        "LSB;label=32;scalar=64";
    class       volScalarField;
    location    "0";
    object      expGpCoeffs4;
}
// * * * * * * * * * * * * * * * * * * * * * * * * * * * * * * * * * * * * * //

dimensions      [0 0 0 0 0 0 0];

internalField   nonuniform List<scalar> 
8000
(
0.168792
0.171799
0.176059
0.180658
0.183246
0.183907
0.182008
0.177841
0.171707
0.163683
0.154406
0.143932
0.132816
0.121118
0.109453
0.0977907
0.0867875
0.0763808
0.0669531
0.0585074
0.050984
0.0444364
0.0383808
0.0328726
0.027349
0.0217859
0.01597
0.00990267
0.00363462
-0.00282418
-0.00936721
-0.0159832
-0.0225539
-0.0290674
-0.0354002
-0.0415399
-0.0473645
-0.0528624
-0.0579196
-0.0625256
-0.066581
-0.0700768
-0.0729332
-0.0751438
-0.076652
-0.0774538
-0.0775187
-0.0768453
-0.0754299
-0.0732737
-0.070399
-0.0668099
-0.0625535
-0.0576358
-0.0521264
-0.0460334
-0.0394454
-0.0323727
-0.0249198
-0.0170981
-0.00902411
-0.000710873
0.00771674
0.0162459
0.0247477
0.0332091
0.0415028
0.0496156
0.0574269
0.0649248
0.0720006
0.0786438
0.084763
0.0903499
0.0954238
0.0999936
0.104561
0.109173
0.114698
0.121083
0.128656
0.137353
0.146696
0.156666
0.166348
0.175761
0.183955
0.190904
0.195953
0.199054
0.199791
0.198145
0.19407
0.187384
0.179083
0.168971
0.158709
0.148755
0.141279
0.136858
0.16855
0.171557
0.176171
0.180771
0.183444
0.184112
0.182196
0.178033
0.171838
0.163814
0.154487
0.144012
0.132851
0.121151
0.109434
0.0977678
0.0867213
0.0763119
0.0668712
0.0584243
0.0509173
0.0443699
0.0383645
0.0328569
0.0273691
0.0218068
0.0159898
0.00992325
0.00364559
-0.00281238
-0.00936634
-0.0159815
-0.0225639
-0.0290766
-0.0354211
-0.0415601
-0.0473961
-0.0528933
-0.0579607
-0.0625661
-0.06663
-0.0701254
-0.0729883
-0.0751985
-0.0767108
-0.0775125
-0.077579
-0.0769056
-0.0754892
-0.0733332
-0.070455
-0.0668663
-0.0626041
-0.0576871
-0.0521699
-0.0460776
-0.0394801
-0.0324083
-0.0249446
-0.0171238
-0.00903798
-0.000725809
0.00771427
0.0162424
0.0247567
0.033217
0.0415229
0.0496347
0.0574573
0.0649543
0.07204
0.0786823
0.0848096
0.0903957
0.0954599
0.100029
0.104522
0.109133
0.114596
0.12098
0.128575
0.137273
0.14668
0.156652
0.166418
0.175832
0.184095
0.191042
0.196133
0.19923
0.199999
0.198346
0.194268
0.187573
0.179154
0.169036
0.158615
0.148663
0.140922
0.136502
0.168289
0.171294
0.176291
0.180893
0.183659
0.184333
0.182398
0.17824
0.171979
0.163956
0.154575
0.144098
0.132889
0.121186
0.109412
0.097743
0.0866499
0.0762375
0.0667827
0.0583347
0.0508454
0.0442981
0.0383469
0.03284
0.0273908
0.0218293
0.0160112
0.00994548
0.00365744
-0.00279965
-0.0093654
-0.0159796
-0.0225747
-0.0290865
-0.0354438
-0.0415819
-0.0474301
-0.0529266
-0.058005
-0.0626098
-0.0666829
-0.0701779
-0.0730477
-0.0752576
-0.0767743
-0.0775759
-0.077644
-0.0769707
-0.0755531
-0.0733974
-0.0705154
-0.0669273
-0.0626588
-0.0577424
-0.0522168
-0.0461254
-0.0395176
-0.0324468
-0.0249713
-0.0171516
-0.00905296
-0.000741937
0.0077116
0.0162385
0.0247664
0.0332256
0.0415447
0.0496554
0.0574902
0.0649861
0.0720825
0.078724
0.0848599
0.0904453
0.0954989
0.100067
0.10448
0.109091
0.114485
0.120869
0.128488
0.137188
0.146663
0.156637
0.166494
0.175909
0.184245
0.191191
0.196328
0.199421
0.200223
0.198563
0.194482
0.187777
0.17923
0.169107
0.158514
0.148564
0.140537
0.136118
0.168006
0.171011
0.176421
0.181024
0.183891
0.184572
0.182617
0.178464
0.172131
0.164109
0.15467
0.144191
0.132929
0.121223
0.10939
0.0977163
0.0865727
0.0761572
0.0666872
0.0582379
0.0507677
0.0442206
0.0383278
0.0328218
0.0274143
0.0218536
0.0160343
0.00996949
0.00367023
-0.00278589
-0.00936439
-0.0159776
-0.0225863
-0.0290971
-0.0354683
-0.0416055
-0.0474669
-0.0529625
-0.0580529
-0.062657
-0.0667401
-0.0702345
-0.0731119
-0.0753215
-0.0768429
-0.0776444
-0.0777142
-0.077041
-0.0756222
-0.0734668
-0.0705807
-0.0669931
-0.0627179
-0.0578022
-0.0522675
-0.046177
-0.0395581
-0.0324883
-0.0250001
-0.0171816
-0.00906914
-0.000759352
0.00770872
0.0162344
0.024777
0.0332349
0.0415682
0.0496777
0.0575257
0.0650205
0.0721285
0.0787689
0.0849143
0.0904988
0.0955409
0.100109
0.104435
0.109045
0.114365
0.12075
0.128395
0.137095
0.146645
0.156621
0.166576
0.175991
0.184407
0.191351
0.196539
0.199626
0.200466
0.198798
0.194714
0.187998
0.179312
0.169183
0.158405
0.148456
0.140121
0.135703
0.167702
0.170706
0.176562
0.181146
0.184142
0.18483
0.182853
0.178705
0.172295
0.164275
0.154772
0.144292
0.132973
0.121264
0.109365
0.0976874
0.0864894
0.0760705
0.066584
0.0581333
0.0506838
0.0441369
0.0383073
0.0328021
0.0274396
0.0218798
0.0160592
0.00999541
0.00368405
-0.00277103
-0.00936329
-0.0159754
-0.0225989
-0.0291086
-0.0354947
-0.0416309
-0.0475066
-0.0530013
-0.0581046
-0.0627079
-0.0668018
-0.0702957
-0.0731812
-0.0753904
-0.0769169
-0.0777183
-0.07779
-0.077117
-0.0756968
-0.0735417
-0.0706512
-0.0670642
-0.0627816
-0.0578668
-0.0523222
-0.0462327
-0.0396019
-0.0325332
-0.0250313
-0.017214
-0.00908661
-0.000778159
0.0077056
0.0162299
0.0247883
0.0332449
0.0415936
0.0497017
0.057564
0.0650576
0.0721781
0.0788175
0.0849729
0.0905565
0.0955864
0.100154
0.104386
0.108995
0.114236
0.120621
0.128293
0.136995
0.146625
0.156603
0.166664
0.17608
0.184582
0.191525
0.196766
0.199849
0.200728
0.199051
0.194963
0.188236
0.1794
0.169266
0.158238
0.14834
0.139671
0.135255
0.167447
0.170461
0.176517
0.18115
0.184314
0.18503
0.183098
0.178992
0.172476
0.164473
0.154898
0.144447
0.133054
0.121385
0.109351
0.0976733
0.0863994
0.0759769
0.0664726
0.0580204
0.0505932
0.0440466
0.0382851
0.0327809
0.0275014
0.0219323
0.0161105
0.0100367
0.00371374
-0.00275185
-0.00935729
-0.0159801
-0.0226176
-0.0291378
-0.0355381
-0.0416841
-0.0475735
-0.053077
-0.0581926
-0.0628033
-0.0669075
-0.0704072
-0.0733005
-0.0755136
-0.077045
-0.0778483
-0.0779218
-0.0772485
-0.0758271
-0.0736696
-0.0707748
-0.0671835
-0.0628939
-0.0579728
-0.0524188
-0.0463212
-0.039679
-0.0326008
-0.0250859
-0.0172579
-0.00911622
-0.000796348
0.00770243
0.0162386
0.0248123
0.0332808
0.0416442
0.0497642
0.0576401
0.0651449
0.0722773
0.078927
0.0850921
0.0906849
0.0957027
0.100278
0.104333
0.108942
0.114096
0.120481
0.128184
0.136888
0.146604
0.156584
0.166775
0.176186
0.18482
0.191723
0.197022
0.200084
0.201001
0.199318
0.195122
0.188423
0.179183
0.16914
0.157752
0.147877
0.139171
0.134757
0.167333
0.17037
0.176424
0.181155
0.18432
0.185212
0.183285
0.179375
0.172866
0.165024
0.155461
0.145114
0.133734
0.122106
0.110085
0.0983886
0.0870929
0.076557
0.0670673
0.0584693
0.0510755
0.0444116
0.0387112
0.0331206
0.0278865
0.0222121
0.0163915
0.0102043
0.0038825
-0.00270206
-0.00930626
-0.0160496
-0.0226859
-0.0293238
-0.035723
-0.0419796
-0.0478679
-0.0534705
-0.0585852
-0.0632798
-0.0673832
-0.070948
-0.0738407
-0.0760976
-0.0776287
-0.0784525
-0.078526
-0.077849
-0.0764279
-0.0742425
-0.0713483
-0.0677057
-0.063417
-0.0584228
-0.0528699
-0.0466798
-0.0400388
-0.0328516
-0.0253381
-0.017388
-0.00924779
-0.000796416
0.00770077
0.0163737
0.0249458
0.0335522
0.041914
0.0501687
0.0580432
0.0656757
0.0728068
0.0795735
0.0857374
0.0914333
0.0964502
0.101111
0.105069
0.109729
0.114778
0.121248
0.128911
0.137691
0.147394
0.157355
0.167567
0.176821
0.185443
0.192128
0.197419
0.200223
0.201136
0.199182
0.194988
0.188045
0.178812
0.168606
0.157228
0.147301
0.138599
0.13419
0.16721
0.170271
0.176324
0.18116
0.184326
0.185408
0.183486
0.179787
0.173288
0.16562
0.156068
0.145833
0.134467
0.122884
0.110878
0.099161
0.0878787
0.0772703
0.0677916
0.0590915
0.0517049
0.0449314
0.0392342
0.0335353
0.0283023
0.0225143
0.0166948
0.0103852
0.00406473
-0.00264829
-0.00925115
-0.0161246
-0.0227596
-0.0295247
-0.0359225
-0.0422986
-0.0481857
-0.0538955
-0.0590091
-0.0637943
-0.0678968
-0.071532
-0.0744241
-0.0767282
-0.078259
-0.0791049
-0.0791784
-0.0784975
-0.0770767
-0.0748612
-0.0719676
-0.0682697
-0.0639818
-0.0589087
-0.0533569
-0.047067
-0.0404274
-0.0331225
-0.0256104
-0.0175284
-0.00938986
-0.00079649
0.00769897
0.0165196
0.0250899
0.0338452
0.0422053
0.0506056
0.0584785
0.0662489
0.0733785
0.0802715
0.0864342
0.0922415
0.0972574
0.102011
0.105968
0.110697
0.115741
0.122247
0.129899
0.138663
0.148352
0.158225
0.168421
0.177508
0.186117
0.192566
0.197848
0.200372
0.201282
0.199035
0.194844
0.187638
0.178412
0.16803
0.156661
0.14668
0.137982
0.133578
0.167077
0.170165
0.176216
0.181166
0.184332
0.18562
0.183703
0.180233
0.173744
0.166263
0.156724
0.146611
0.135259
0.123724
0.111734
0.099995
0.0887272
0.0780406
0.0685738
0.0597633
0.0523846
0.0454927
0.0397991
0.0339831
0.0287513
0.0228406
0.0170224
0.0105806
0.00426151
-0.00259023
-0.00919164
-0.0162057
-0.0228392
-0.0297416
-0.0361381
-0.0426431
-0.0485289
-0.0543544
-0.0594669
-0.0643498
-0.0684515
-0.0721626
-0.0750541
-0.0774091
-0.0789396
-0.0798094
-0.0798829
-0.0791977
-0.0777772
-0.0755293
-0.0726363
-0.0688786
-0.0645917
-0.0594335
-0.0538829
-0.0474851
-0.0408469
-0.0334149
-0.0259045
-0.01768
-0.00954328
-0.000796569
0.00769703
0.0166772
0.0252456
0.0341616
0.0425199
0.0510774
0.0589485
0.0668678
0.0739959
0.0810253
0.0871867
0.0931142
0.098129
0.102983
0.106939
0.111742
0.116781
0.123326
0.130966
0.139714
0.149386
0.159164
0.169344
0.178249
0.186844
0.193038
0.198311
0.200534
0.201439
0.198877
0.194687
0.187199
0.17798
0.167407
0.15605
0.146008
0.137316
0.132917
0.166934
0.17005
0.176099
0.181172
0.184339
0.185849
0.183938
0.180714
0.174235
0.166957
0.157433
0.14745
0.136115
0.124632
0.112658
0.100896
0.0896435
0.0788724
0.0694184
0.0604887
0.0531186
0.0460989
0.040409
0.0344667
0.0292362
0.023193
0.0173762
0.0107916
0.00447401
-0.00252753
-0.00912738
-0.0162932
-0.0229251
-0.0299759
-0.0363708
-0.0430152
-0.0488996
-0.05485
-0.0599612
-0.0649498
-0.0690504
-0.0728435
-0.0757343
-0.0781445
-0.0796745
-0.0805702
-0.0806436
-0.0799539
-0.0785337
-0.0762507
-0.0733584
-0.0695362
-0.0652502
-0.0600001
-0.0544509
-0.0479366
-0.0413
-0.0337307
-0.026222
-0.0178438
-0.00970894
-0.000796655
0.00769494
0.0168473
0.0254137
0.0345033
0.0428596
0.0515868
0.059456
0.0675362
0.0746626
0.0818393
0.0879992
0.0940566
0.0990702
0.104032
0.107987
0.11287
0.117904
0.124491
0.132118
0.140848
0.150503
0.160179
0.17034
0.179049
0.187629
0.193548
0.198811
0.200708
0.201609
0.198706
0.194519
0.186724
0.177514
0.166735
0.155389
0.145283
0.136597
0.132203
0.166778
0.169926
0.175973
0.181178
0.184346
0.186096
0.184192
0.181233
0.174766
0.167707
0.158198
0.148356
0.137038
0.125612
0.113656
0.101868
0.0906329
0.0797705
0.0703304
0.0612721
0.0539111
0.0467534
0.0410677
0.034989
0.0297597
0.0235735
0.0177582
0.0110195
0.00470346
-0.00245983
-0.009058
-0.0163877
-0.0230179
-0.0302288
-0.0366221
-0.0434169
-0.0492998
-0.0553851
-0.060495
-0.0655976
-0.0696972
-0.0735788
-0.0764689
-0.0789385
-0.0804682
-0.0813917
-0.0814651
-0.0807704
-0.0793506
-0.0770297
-0.0741381
-0.0702462
-0.0659614
-0.060612
-0.0550642
-0.0484242
-0.0417893
-0.0340717
-0.026565
-0.0180206
-0.00988783
-0.000796748
0.00769268
0.017031
0.0255952
0.0348722
0.0432264
0.0521368
0.0600041
0.0682579
0.0753825
0.0827183
0.0888766
0.0950742
0.100087
0.105165
0.109119
0.114089
0.119116
0.12575
0.133363
0.142073
0.151708
0.161274
0.171416
0.179914
0.188477
0.194099
0.19935
0.200896
0.201793
0.198521
0.194336
0.186211
0.17701
0.16601
0.154676
0.144501
0.13582
0.131432
0.166611
0.169792
0.175837
0.181185
0.184354
0.186363
0.184465
0.181794
0.17534
0.168516
0.159024
0.149335
0.138036
0.12667
0.114733
0.102918
0.0917013
0.0807404
0.0713153
0.0621181
0.054767
0.0474602
0.0417789
0.0355529
0.0303251
0.0239844
0.0181707
0.0112655
0.00495124
-0.00238673
-0.00898307
-0.0164897
-0.0231181
-0.0305019
-0.0368935
-0.0438507
-0.049732
-0.0559629
-0.0610715
-0.0662971
-0.0703956
-0.0743728
-0.0772621
-0.0797959
-0.0813252
-0.0822788
-0.0823522
-0.0816521
-0.0802327
-0.0778709
-0.0749801
-0.071013
-0.0667293
-0.0612727
-0.0557264
-0.0489507
-0.0423176
-0.0344399
-0.0269353
-0.0182115
-0.010081
-0.000796848
0.00769023
0.0172294
0.0257912
0.0352707
0.0436226
0.0527308
0.0605959
0.0690372
0.0761599
0.0836675
0.0898241
0.0961731
0.101184
0.106389
0.110342
0.115405
0.120426
0.127108
0.134706
0.143396
0.153011
0.162457
0.172578
0.180847
0.189392
0.194694
0.199933
0.201099
0.201991
0.198322
0.19414
0.185658
0.176466
0.165226
0.153906
0.143655
0.134981
0.1306
0.166638
0.169834
0.175453
0.180883
0.184238
0.186423
0.184838
0.182352
0.176148
0.169496
0.160219
0.150629
0.139501
0.128156
0.116263
0.10444
0.0931325
0.0821582
0.072582
0.0633409
0.0558502
0.0484519
0.0426961
0.0363463
0.0310765
0.0246294
0.0186937
0.0116738
0.00523703
-0.00222126
-0.00894306
-0.0165716
-0.0233241
-0.0308271
-0.0373371
-0.0444062
-0.0503959
-0.0567272
-0.06193
-0.0672404
-0.0714156
-0.0754586
-0.0784037
-0.0809817
-0.0825438
-0.0835181
-0.0835998
-0.0828961
-0.0814599
-0.0790701
-0.0761379
-0.072119
-0.0677706
-0.0622402
-0.0566076
-0.0497385
-0.0430002
-0.0350124
-0.0273872
-0.01854
-0.0102771
-0.000860026
0.00776718
0.0174446
0.02615
0.0357688
0.0442635
0.053508
0.061511
0.0700815
0.0773332
0.0849592
0.0912328
0.097686
0.102811
0.108103
0.112008
0.117152
0.122201
0.128863
0.136556
0.145126
0.15479
0.164067
0.174106
0.182193
0.190496
0.195583
0.200504
0.201396
0.201989
0.198023
0.193541
0.184762
0.175371
0.163864
0.152541
0.142169
0.134041
0.129664
0.166895
0.17009
0.175026
0.180449
0.184057
0.186239
0.185337
0.182865
0.177425
0.170807
0.162108
0.152563
0.141796
0.130502
0.118777
0.107006
0.0956583
0.0847287
0.0749066
0.0656967
0.0578283
0.0504461
0.0442189
0.037873
0.032161
0.025716
0.0194088
0.0123912
0.00558097
-0.00187493
-0.0089791
-0.0166052
-0.0237362
-0.0312367
-0.0381078
-0.0451746
-0.0514949
-0.0578241
-0.0633146
-0.0686233
-0.0730319
-0.0770735
-0.0801887
-0.0827659
-0.0844277
-0.0854017
-0.0855085
-0.084805
-0.0833175
-0.0809284
-0.0778698
-0.0738521
-0.0693056
-0.063777
-0.0578808
-0.0510139
-0.0439548
-0.0359695
-0.027976
-0.0191317
-0.0104645
-0.0010505
0.00800447
0.0176787
0.0268225
0.0364382
0.0453688
0.0546103
0.063034
0.0716017
0.0792473
0.0868708
0.0935009
0.0999521
0.105426
0.110716
0.115065
0.120204
0.125579
0.132215
0.139888
0.148414
0.157757
0.166981
0.176405
0.184445
0.191936
0.19699
0.200988
0.201868
0.201476
0.197521
0.192165
0.183421
0.173634
0.162167
0.150881
0.140532
0.132988
0.128613
0.167085
0.17028
0.174717
0.180134
0.184015
0.18619
0.185875
0.183419
0.178805
0.172222
0.164148
0.154651
0.144274
0.133035
0.121492
0.109777
0.0983858
0.0875044
0.0774169
0.0682405
0.0599643
0.0525996
0.0458632
0.0395217
0.0333321
0.0268893
0.020181
0.0131658
0.00595236
-0.00150094
-0.00901802
-0.0166415
-0.0241811
-0.031679
-0.03894
-0.0460044
-0.0526817
-0.0590087
-0.0648096
-0.0701165
-0.0747772
-0.0788174
-0.0821162
-0.0846925
-0.086462
-0.0874357
-0.0875695
-0.0868662
-0.0853234
-0.0829352
-0.0797399
-0.0757236
-0.0709632
-0.0654366
-0.0592557
-0.0523912
-0.0449855
-0.0370031
-0.0286119
-0.0197706
-0.0106669
-0.00125618
0.0082607
0.0179316
0.0275487
0.0371611
0.0465623
0.0558006
0.0646786
0.0732433
0.0813142
0.088935
0.0959501
0.102399
0.108248
0.113537
0.118366
0.123499
0.129227
0.135835
0.143485
0.151964
0.160962
0.170129
0.178888
0.186876
0.193492
0.198511
0.201512
0.202378
0.200921
0.196979
0.190679
0.181973
0.171782
0.160361
0.148829
0.138503
0.13173
0.127358
0.165876
0.169068
0.174664
0.180079
0.184846
0.187046
0.187559
0.185154
0.18107
0.174551
0.166886
0.157456
0.147243
0.13607
0.124411
0.112756
0.101061
0.090226
0.0797584
0.0706124
0.0619571
0.0546083
0.0475649
0.0412278
0.0347288
0.0282885
0.0211425
0.01413
0.00642424
-0.00102626
-0.00905394
-0.0166745
-0.0247247
-0.0322198
-0.0399722
-0.0470339
-0.054164
-0.0604887
-0.0666857
-0.0719906
-0.0769743
-0.081013
-0.0845486
-0.0871239
-0.089034
-0.0900073
-0.0901796
-0.0894766
-0.0878682
-0.0854809
-0.082118
-0.0781033
-0.0730786
-0.067554
-0.0610209
-0.054159
-0.0463243
-0.0383448
-0.0294614
-0.0206235
-0.01098
-0.00157282
0.00851477
0.018182
0.0283829
0.0379916
0.0479716
0.0572064
0.0666405
0.0752019
0.0837893
0.0914073
0.0988844
0.105331
0.111535
0.116822
0.121786
0.126913
0.132743
0.139324
0.14708
0.155512
0.164475
0.17358
0.182073
0.189994
0.19603
0.200989
0.2031
0.203924
0.20142
0.197457
0.190099
0.181403
0.169934
0.158555
0.146127
0.135837
0.128432
0.124066
0.164577
0.167771
0.174438
0.17989
0.185707
0.18787
0.189386
0.187038
0.183587
0.177137
0.169883
0.160528
0.150467
0.139366
0.127562
0.115971
0.103907
0.0931212
0.0822101
0.0730969
0.0640356
0.0567041
0.0493885
0.0430564
0.0362442
0.0298064
0.0221877
0.015178
0.00693759
-0.00050988
-0.00909239
-0.0167099
-0.0253152
-0.0328072
-0.041094
-0.0481528
-0.0557756
-0.0620976
-0.0687256
-0.0740283
-0.0793636
-0.0834007
-0.087194
-0.0897683
-0.0918315
-0.0928044
-0.0930188
-0.0923161
-0.0906367
-0.0882503
-0.0847054
-0.0806922
-0.0753804
-0.0698581
-0.0629421
-0.056083
-0.047782
-0.0398058
-0.0303876
-0.0215533
-0.0113232
-0.00191981
0.00878789
0.0184512
0.0292863
0.0388912
0.0494999
0.058731
0.0687689
0.0773269
0.0864751
0.09409
0.102069
0.108512
0.115098
0.120382
0.125453
0.130573
0.136442
0.142995
0.150902
0.159283
0.168277
0.177314
0.185563
0.19341
0.198823
0.203717
0.204893
0.205669
0.202059
0.198072
0.189482
0.180794
0.167914
0.156584
0.14328
0.132962
0.124887
0.120523
0.163588
0.16687
0.173531
0.179417
0.185225
0.188225
0.189865
0.188377
0.185102
0.179401
0.172246
0.163428
0.153448
0.142636
0.13089
0.119334
0.107277
0.0963089
0.0853685
0.0759319
0.0668238
0.0591198
0.0517752
0.0450498
0.038218
0.0313167
0.0236643
0.0161552
0.00787654
-9.39218e-05
-0.00871606
-0.0168624
-0.0255074
-0.0335157
-0.0418406
-0.0493842
-0.0570421
-0.0637996
-0.0704584
-0.0761307
-0.0814912
-0.0858184
-0.0896301
-0.0924041
-0.0944784
-0.0955533
-0.0957709
-0.095069
-0.0933848
-0.090898
-0.0873403
-0.083129
-0.077797
-0.0719854
-0.0650425
-0.0578123
-0.0494786
-0.0410613
-0.0316054
-0.0222738
-0.0120022
-0.0020604
0.00869114
0.0189179
0.0297979
0.0399744
0.0506277
0.060422
0.0705028
0.0795995
0.0887876
0.0969017
0.104916
0.111806
0.118419
0.124079
0.129179
0.134537
0.140399
0.14702
0.154922
0.16313
0.172079
0.180638
0.188782
0.195854
0.20112
0.205025
0.206073
0.205752
0.202017
0.196944
0.188176
0.178544
0.165602
0.153598
0.140354
0.129869
0.121815
0.117498
0.162519
0.165898
0.172551
0.178905
0.184705
0.188609
0.190263
0.189819
0.186586
0.181791
0.174696
0.166523
0.156614
0.146145
0.134473
0.122953
0.110964
0.0997632
0.0888767
0.0790305
0.0699564
0.0617678
0.0544372
0.0472062
0.0403777
0.0329367
0.025288
0.0171974
0.00892267
0.000343379
-0.00827468
-0.0170368
-0.0256776
-0.0342869
-0.0426078
-0.0507158
-0.0583701
-0.0656344
-0.0722901
-0.0783928
-0.0837507
-0.0884156
-0.0922255
-0.095232
-0.0973053
-0.0984991
-0.0987166
-0.0980155
-0.0963321
-0.0937284
-0.0901724
-0.0857302
-0.0804008
-0.0742524
-0.0673127
-0.0596506
-0.0513208
-0.0423901
-0.0329386
-0.023028
-0.0127613
-0.0021926
0.00855384
0.0194366
0.0303114
0.0411535
0.0518018
0.0622518
0.0723278
0.0820518
0.0912355
0.0999309
0.107941
0.115352
0.121961
0.12806
0.133157
0.13882
0.144662
0.151381
0.159237
0.167241
0.176126
0.184114
0.192192
0.198336
0.203548
0.206263
0.207279
0.205634
0.201897
0.195498
0.186763
0.175986
0.163106
0.150374
0.137195
0.126529
0.118497
0.114231
0.161364
0.164848
0.171492
0.178352
0.184144
0.189023
0.190693
0.191376
0.188188
0.184371
0.177342
0.169866
0.160033
0.149934
0.138343
0.12686
0.114946
0.103493
0.092665
0.0823764
0.0733392
0.0646271
0.0573118
0.0495347
0.0427098
0.034686
0.0270412
0.0183228
0.0100523
0.000815594
-0.00779805
-0.017225
-0.0258615
-0.0351196
-0.0434363
-0.0521538
-0.0598041
-0.0676158
-0.074268
-0.0808354
-0.0861906
-0.0912201
-0.0950281
-0.0982857
-0.100358
-0.10168
-0.101897
-0.101197
-0.0995147
-0.0967847
-0.0932305
-0.0885392
-0.0832125
-0.0767003
-0.0697642
-0.0616356
-0.0533101
-0.0438249
-0.0343783
-0.0238425
-0.0135811
-0.00233537
0.00840558
0.0199966
0.0308659
0.0424268
0.0530695
0.0642277
0.0742986
0.0846998
0.0938788
0.103202
0.111208
0.11918
0.125786
0.132357
0.137452
0.143445
0.149265
0.15609
0.163896
0.17168
0.180496
0.187869
0.195873
0.201016
0.20617
0.207599
0.208583
0.205505
0.201768
0.193937
0.185236
0.173224
0.160411
0.146893
0.133783
0.122923
0.114914
0.110704
0.160574
0.164087
0.169879
0.176857
0.182918
0.188165
0.190592
0.191748
0.189491
0.186105
0.179858
0.17271
0.163484
0.153588
0.142429
0.131011
0.119293
0.107778
0.0968786
0.0864294
0.077117
0.0681801
0.0604307
0.0524063
0.0451159
0.0368675
0.0288
0.0198397
0.0111488
0.0016588
-0.0073832
-0.0170663
-0.026125
-0.0356331
-0.0443519
-0.053304
-0.0613228
-0.0693453
-0.0763198
-0.0830663
-0.088687
-0.0938571
-0.0978651
-0.101219
-0.10342
-0.104792
-0.105061
-0.104362
-0.102655
-0.0998767
-0.0962223
-0.0914355
-0.0859365
-0.0792847
-0.0721099
-0.0638021
-0.055179
-0.0454809
-0.0356871
-0.024911
-0.0142629
-0.00275705
0.00839858
0.0202619
0.0315624
0.0433996
0.0544782
0.0659088
0.0764086
0.0870704
0.0966605
0.106225
0.114615
0.122803
0.12979
0.136543
0.1421
0.148239
0.154289
0.161143
0.168732
0.176384
0.184599
0.191675
0.198763
0.203461
0.20757
0.208454
0.208417
0.204754
0.200062
0.191665
0.182195
0.169729
0.156718
0.143001
0.13012
0.119297
0.111767
0.107582
0.15908
0.162589
0.168119
0.175072
0.181889
0.187108
0.190706
0.191866
0.191001
0.187657
0.182673
0.175592
0.167287
0.157474
0.146862
0.135535
0.123986
0.112554
0.101438
0.0910496
0.0812118
0.0723083
0.0637906
0.0557753
0.047717
0.0394736
0.0306837
0.0217288
0.0122935
0.00280916
-0.00699472
-0.016672
-0.0264845
-0.0359869
-0.0454256
-0.0543724
-0.0630521
-0.0710698
-0.0786234
-0.0853658
-0.0914639
-0.0966309
-0.100998
-0.104351
-0.106781
-0.108152
-0.108515
-0.107816
-0.106065
-0.103288
-0.0994524
-0.0946684
-0.088859
-0.0822111
-0.0746071
-0.0663043
-0.0571469
-0.0474546
-0.0370381
-0.0262685
-0.014928
-0.00342897
0.00846855
0.0203248
0.0323955
0.0442256
0.0560814
0.0675051
0.0787676
0.0894231
0.0997413
0.1093
0.118364
0.126547
0.134168
0.140918
0.14712
0.153249
0.159677
0.166489
0.173784
0.18137
0.188704
0.195707
0.201447
0.206088
0.208574
0.209434
0.207637
0.203989
0.197577
0.189237
0.178404
0.166036
0.152222
0.138612
0.125269
0.114505
0.107689
0.10351
0.155578
0.159089
0.166078
0.173084
0.181467
0.186699
0.192186
0.193358
0.193925
0.190665
0.186724
0.179743
0.172093
0.162383
0.151946
0.140723
0.1289
0.117554
0.10591
0.0955815
0.0851537
0.076283
0.0673318
0.0593261
0.05075
0.0425104
0.0329271
0.0239764
0.0136433
0.00416343
-0.00656912
-0.0162418
-0.0269811
-0.036479
-0.0468087
-0.0557512
-0.0652533
-0.0732671
-0.0815436
-0.0882829
-0.0949777
-0.100142
-0.104959
-0.10831
-0.111027
-0.112397
-0.112876
-0.112178
-0.110368
-0.107593
-0.103529
-0.098748
-0.0925503
-0.0859061
-0.0777672
-0.0694688
-0.0596478
-0.0499607
-0.0387727
-0.0280087
-0.0158125
-0.00431946
0.0084926
0.0203427
0.0333598
0.0451839
0.0579902
0.0694081
0.081598
0.0922481
0.103444
0.112998
0.122865
0.131045
0.139308
0.146055
0.152506
0.158624
0.165093
0.171863
0.179161
0.186676
0.193637
0.200552
0.205381
0.209938
0.210969
0.21178
0.208231
0.204561
0.196308
0.18799
0.17521
0.162945
0.147092
0.133547
0.119171
0.108419
0.101049
0.0968852
0.152528
0.156125
0.163094
0.170697
0.179033
0.185581
0.191044
0.193878
0.194511
0.192809
0.188944
0.183252
0.175697
0.166901
0.156574
0.145821
0.13409
0.12277
0.111179
0.100514
0.0901005
0.0806734
0.0717237
0.0630449
0.054469
0.0454409
0.0358643
0.0260626
0.0157368
0.00536856
-0.0053565
-0.015926
-0.0266578
-0.0370311
-0.0473536
-0.0571209
-0.0666163
-0.0753767
-0.0836475
-0.0910308
-0.0977209
-0.103407
-0.10822
-0.111954
-0.114669
-0.116272
-0.116751
-0.116131
-0.114322
-0.111472
-0.107412
-0.102405
-0.0962114
-0.0892009
-0.0810677
-0.0722751
-0.0624609
-0.0521674
-0.0409872
-0.0295235
-0.0173357
-0.00507027
0.00773286
0.0204061
0.0334141
0.0460887
0.0588861
0.0711587
0.0833401
0.094826
0.106014
0.116363
0.126224
0.135136
0.143394
0.150772
0.157271
0.163758
0.170221
0.176913
0.184166
0.191021
0.197902
0.203577
0.208298
0.211183
0.212134
0.211059
0.207494
0.201951
0.193721
0.183709
0.170982
0.15736
0.141648
0.127363
0.113113
0.102322
0.0949901
0.0909782
0.149234
0.152924
0.159865
0.168119
0.176404
0.184373
0.189811
0.19444
0.195092
0.195118
0.191311
0.187041
0.179572
0.171779
0.161556
0.151318
0.139691
0.128394
0.11689
0.105842
0.0954879
0.0854224
0.0764984
0.0670543
0.0584851
0.0486054
0.039036
0.0283155
0.0179974
0.0066699
-0.00404708
-0.015585
-0.0263086
-0.0376272
-0.047942
-0.0585998
-0.0680881
-0.0776547
-0.0859192
-0.093998
-0.100683
-0.106932
-0.111741
-0.115888
-0.118601
-0.120457
-0.120935
-0.120401
-0.118593
-0.115661
-0.111604
-0.106353
-0.100165
-0.0927588
-0.0846317
-0.0753054
-0.0654986
-0.0545503
-0.0433786
-0.0311592
-0.0189807
-0.00588101
0.00691247
0.0204744
0.0334726
0.0470658
0.0598535
0.0730491
0.0852213
0.0976098
0.108789
0.119997
0.12985
0.139554
0.147806
0.155866
0.16236
0.169264
0.1757
0.182316
0.189512
0.195643
0.202453
0.206767
0.211426
0.21247
0.213393
0.210248
0.206697
0.199085
0.19092
0.179029
0.166416
0.15133
0.135769
0.120686
0.106571
0.0957513
0.0884471
0.0845997
0.146554
0.150251
0.156025
0.164282
0.172767
0.180926
0.187423
0.192379
0.194735
0.195118
0.192989
0.189048
0.183033
0.175511
0.166469
0.156417
0.145566
0.134352
0.123086
0.112016
0.101392
0.0912103
0.0815416
0.0719268
0.0624859
0.0524495
0.0421326
0.0312431
0.0201902
0.00868627
-0.00277744
-0.0144934
-0.0259533
-0.0374457
-0.0484647
-0.0592862
-0.0694267
-0.0791416
-0.0879885
-0.0961953
-0.103378
-0.10973
-0.114939
-0.119162
-0.122168
-0.124071
-0.124729
-0.124211
-0.122468
-0.119522
-0.115413
-0.110119
-0.103767
-0.0962902
-0.087894
-0.0784714
-0.0682991
-0.0572325
-0.0456103
-0.0332542
-0.0205533
-0.00730243
0.00607042
0.0197938
0.0334131
0.0471733
0.0606083
0.0739721
0.0868015
0.0993548
0.111186
0.122551
0.133034
0.142885
0.151777
0.159962
0.167215
0.174207
0.180892
0.187468
0.19395
0.199889
0.205237
0.209237
0.21199
0.21265
0.211606
0.208069
0.202716
0.194753
0.185055
0.172893
0.159306
0.144075
0.128665
0.113627
0.100156
0.0894481
0.0827161
0.0789041
0.140173
0.143859
0.150879
0.159107
0.16966
0.177715
0.186722
0.191668
0.196216
0.196646
0.196459
0.192605
0.188109
0.180701
0.172584
0.162657
0.152104
0.141004
0.129521
0.118536
0.107356
0.0972234
0.086935
0.0773355
0.0671547
0.0571271
0.0457805
0.0349005
0.0227011
0.0112073
-0.00143897
-0.0131446
-0.0257842
-0.0372665
-0.0494231
-0.0602351
-0.0714339
-0.0811402
-0.0909319
-0.0991315
-0.107116
-0.113463
-0.119309
-0.123528
-0.126988
-0.128889
-0.129809
-0.129292
-0.127614
-0.124671
-0.120434
-0.115146
-0.108482
-0.101011
-0.092132
-0.0827177
-0.0719077
-0.0608509
-0.048457
-0.0361118
-0.0225289
-0.00928963
0.00505035
0.0187617
0.0334057
0.0471538
0.0616426
0.0749947
0.0888783
0.101421
0.114277
0.125632
0.137086
0.146927
0.156666
0.164844
0.172592
0.179571
0.186342
0.192875
0.198892
0.204765
0.208915
0.212849
0.21372
0.214342
0.210971
0.207442
0.199652
0.191753
0.179759
0.16772
0.15203
0.136986
0.119458
0.10462
0.0899872
0.0793557
0.0729991
0.069201
0.134
0.137712
0.14471
0.15355
0.164024
0.173663
0.182762
0.189792
0.194521
0.197149
0.197109
0.19528
0.190944
0.185203
0.177257
0.168496
0.15807
0.147538
0.136116
0.125117
0.11394
0.103348
0.0930383
0.082711
0.0724848
0.0615586
0.0501636
0.0383099
0.0260552
0.0135468
0.000843291
-0.0118875
-0.0245843
-0.037072
-0.0492839
-0.0610531
-0.0723033
-0.0828923
-0.0927302
-0.101715
-0.109739
-0.116754
-0.122632
-0.127388
-0.130871
-0.133167
-0.134101
-0.13383
-0.132157
-0.129309
-0.125069
-0.119725
-0.113049
-0.10538
-0.0964798
-0.0867314
-0.0758937
-0.0643792
-0.0519513
-0.0390392
-0.0254169
-0.0115185
0.00286507
0.0173097
0.0320003
0.0465359
0.061073
0.0752461
0.0891784
0.102554
0.115459
0.127638
0.139137
0.149773
0.15955
0.168432
0.176282
0.183609
0.190392
0.196566
0.202523
0.207183
0.211207
0.213225
0.213925
0.212252
0.208728
0.202876
0.195015
0.185011
0.173005
0.15925
0.14357
0.127363
0.109969
0.0946383
0.0802089
0.0698319
0.0635124
0.0600072
0.127827
0.131551
0.138072
0.147258
0.157628
0.168381
0.177763
0.186427
0.191871
0.196251
0.197032
0.196827
0.193317
0.188926
0.181767
0.17396
0.164177
0.154117
0.14308
0.132078
0.120994
0.110019
0.0995012
0.0885647
0.0779989
0.0663785
0.0546969
0.0420912
0.0295601
0.0162679
0.00328446
-0.0102381
-0.0232119
-0.0364763
-0.0489565
-0.061465
-0.0729697
-0.0842406
-0.094315
-0.103906
-0.112146
-0.119678
-0.125745
-0.130917
-0.134563
-0.137165
-0.138231
-0.138151
-0.13658
-0.133806
-0.129634
-0.12425
-0.117608
-0.109787
-0.100887
-0.090882
-0.0800109
-0.0681445
-0.055651
-0.0423028
-0.0285845
-0.0141785
0.000328721
0.0153381
0.0301773
0.0453197
0.0600268
0.0748329
0.0889529
0.102971
0.116077
0.128893
0.140603
0.151852
0.161852
0.171278
0.179417
0.187033
0.193807
0.199707
0.205197
0.208898
0.212143
0.212648
0.212458
0.208974
0.204652
0.196974
0.188502
0.176859
0.16446
0.149387
0.133642
0.116585
0.0996815
0.0841285
0.0703148
0.0602202
0.0539706
0.0506836
0.118982
0.122692
0.129301
0.138371
0.15035
0.160922
0.172778
0.181311
0.189532
0.193856
0.197463
0.197269
0.196324
0.191998
0.186902
0.179196
0.170788
0.160842
0.150394
0.13949
0.128269
0.117355
0.106182
0.0952664
0.0837944
0.0721869
0.0594412
0.0468495
0.03318
0.0199027
0.0057499
-0.00775762
-0.0218993
-0.0351489
-0.0487648
-0.0612594
-0.0738397
-0.085098
-0.096163
-0.105744
-0.114867
-0.122391
-0.12922
-0.134386
-0.138657
-0.141255
-0.1428
-0.14272
-0.141474
-0.138703
-0.134701
-0.129323
-0.122695
-0.114883
-0.105847
-0.0958532
-0.0847022
-0.0728491
-0.0599423
-0.046609
-0.032357
-0.017967
-0.0028209
0.0121718
0.0277376
0.0428633
0.0583657
0.0731553
0.0881187
0.102122