/*--------------------------------*- C++ -*----------------------------------*\
| =========                 |                                                 |
| \\      /  F ield         | OpenFOAM: The Open Source CFD Toolbox           |
|  \\    /   O peration     | Version:  v2106                                 |
|   \\  /    A nd           | Website:  www.openfoam.com                      |
|    \\/     M anipulation  |                                                 |
\*---------------------------------------------------------------------------*/
FoamFile
{
    version     2.0;
    format      ascii;
    arch        "LSB;label=32;scalar=64";
    class       volScalarField;
    location    "0";
    object      expGpCoeffs30;
}
// * * * * * * * * * * * * * * * * * * * * * * * * * * * * * * * * * * * * * //

dimensions      [0 0 0 0 0 0 0];

internalField   nonuniform List<scalar> 
8000
(
0.0220939
0.0224657
0.0227203
0.0225732
0.0215801
0.019925
0.0178913
0.0155515
0.0132733
0.0110416
0.00901121
0.00718964
0.00560428
0.00425768
0.00314668
0.00225874
0.00156548
0.00105701
0.000677471
0.000425451
0.000244731
0.000136417
6.44605e-05
2.98648e-05
1.9423e-05
3.43118e-05
7.63743e-05
0.000146095
0.000248643
0.000384366
0.000556211
0.000764254
0.00100802
0.00128723
0.00159738
0.00193783
0.00229999
0.00268287
0.00307443
0.00347341
0.00386557
0.00424953
0.00461047
0.00494708
0.00524585
0.00550565
0.00571596
0.00587599
0.00597951
0.00602615
0.0060146
0.00594497
0.00582091
0.00564294
0.00541904
0.00515011
0.00484735
0.0045119
0.0041568
0.0037833
0.00340479
0.0030225
0.00264878
0.0022847
0.00194043
0.00161677
0.00132086
0.00105324
0.000817577
0.000614099
0.000443041
0.000304328
0.000195169
0.000115243
5.95292e-05
2.75467e-05
1.68001e-05
2.6255e-05
6.97369e-05
0.000146641
0.000302445
0.000536412
0.00092778
0.00147862
0.00227269
0.0033227
0.00467343
0.00634123
0.00832833
0.0106308
0.0132005
0.0160265
0.0188963
0.0218265
0.0243544
0.0263884
0.0275918
0.0277409
0.0274011
0.0269264
0.022064
0.0224357
0.0227915
0.0226454
0.0216305
0.0199765
0.0178992
0.0155586
0.0132616
0.0110287
0.00899421
0.00717155
0.00558628
0.00423882
0.00312995
0.00224141
0.0015529
0.00104411
0.000669926
0.000417804
0.000240848
0.000132516
6.24215e-05
2.78277e-05
1.74696e-05
3.23564e-05
7.39099e-05
0.000143621
0.000245796
0.000381502
0.000553246
0.000761262
0.00100527
0.00128445
0.00159523
0.00193563
0.00229877
0.0026816
0.0030744
0.00347333
0.00386686
0.00425077
0.00461304
0.00494961
0.00524951
0.00550928
0.00572037
0.00588039
0.00598426
0.00603089
0.00601923
0.00594961
0.005825
0.00564705
0.00542226
0.00515336
0.00484946
0.00451405
0.00415772
0.00378426
0.00340453
0.00302229
0.00264752
0.00228349
0.00193839
0.00161477
0.00131834
0.00105075
0.000814891
0.000611439
0.00044048
0.000301785
0.000192973
0.000113057
5.78501e-05
2.58718e-05
1.51332e-05
2.45889e-05
6.59634e-05
0.000142887
0.000293574
0.000527658
0.000911211
0.00146243
0.00224938
0.00330018
0.00464783
0.00631675
0.00830442
0.0106083
0.0131848
0.0160124
0.0189073
0.0218384
0.0244199
0.0264526
0.0276808
0.0278287
0.0273628
0.0268882
0.0220317
0.0224032
0.0228684
0.0227233
0.021685
0.020032
0.0179077
0.0155663
0.013249
0.0110148
0.00897586
0.00715203
0.00556684
0.00421845
0.0031119
0.00222269
0.00153931
0.00103019
0.000661779
0.000409547
0.000236655
0.000128304
6.02198e-05
2.5628e-05
1.53602e-05
3.0245e-05
7.12487e-05
0.000140951
0.000242722
0.000378409
0.000550044
0.000758031
0.00100231
0.00128145
0.0015929
0.00193326
0.00229745
0.00268023
0.00307437
0.00347325
0.00386826
0.00425211
0.00461582
0.00495235
0.00525346
0.00551319
0.00572514
0.00588513
0.00598938
0.00603601
0.00602423
0.00595462
0.00582942
0.0056515
0.00542573
0.00515687
0.00485174
0.00451638
0.0041587
0.0037853
0.00340426
0.00302207
0.00264615
0.00228217
0.00193618
0.00161261
0.00131562
0.00104807
0.00081199
0.000608567
0.000437715
0.000299039
0.000190602
0.000110697
5.60371e-05
2.40631e-05
1.33331e-05
2.27898e-05
6.18885e-05
0.000138834
0.000283994
0.000518205
0.00089332
0.00144496
0.00222421
0.00327586
0.00462018
0.00629032
0.00827859
0.010584
0.0131679
0.0159972
0.0189192
0.0218512
0.0244907
0.0265219
0.0277769
0.0279235
0.0273214
0.0268469
0.0219968
0.0223682
0.0229514
0.0228075
0.0217439
0.0200921
0.0179169
0.0155746
0.0132354
0.0109997
0.00895604
0.00713094
0.00554585
0.00419646
0.00309239
0.00220248
0.00152464
0.00101515
0.000652981
0.000400631
0.000232127
0.000123756
5.78422e-05
2.32526e-05
1.30824e-05
2.79649e-05
6.8375e-05
0.000138067
0.000239403
0.000375069
0.000546586
0.000754543
0.000999106
0.0012782
0.00159039
0.0019307
0.00229603
0.00267875
0.00307433
0.00347316
0.00386976
0.00425356
0.00461882
0.0049553
0.00525773
0.00551742
0.00573028
0.00589025
0.00599492
0.00604154
0.00602963
0.00596003
0.00583419
0.0056563
0.00542948
0.00516066
0.0048542
0.00451889
0.00415976
0.00378642
0.00340397
0.00302184
0.00264467
0.00228075
0.00193381
0.00161029
0.00131268
0.00104517
0.000808858
0.000605465
0.000434729
0.000296074
0.000188042
0.000108149
5.40792e-05
2.21101e-05
1.13893e-05
2.08471e-05
5.74884e-05
0.000134456
0.000273649
0.000507998
0.000874
0.00142609
0.00219704
0.0032496
0.00459033
0.00626178
0.00825071
0.0105577
0.0131496
0.0159807
0.018932
0.0218651
0.024567
0.0265968
0.0278806
0.0280259
0.0272767
0.0268024
0.0219591
0.0223304
0.023041
0.0229058
0.0218074
0.0201569
0.0179269
0.0155836
0.0132208
0.0109834
0.00893464
0.00710817
0.00552319
0.00417271
0.00307134
0.00218066
0.0015088
0.000998919
0.000643481
0.000391003
0.000227238
0.000118845
5.52748e-05
2.06876e-05
1.06227e-05
2.55029e-05
6.5272e-05
0.000134952
0.000235818
0.000371463
0.000542853
0.000750776
0.000995649
0.0012747
0.00158767
0.00192793
0.00229449
0.00267715
0.0030743
0.00347306
0.00387139
0.00425512
0.00462207
0.00495848
0.00526234
0.00552199
0.00573584
0.00589579
0.00600089
0.00604751
0.00603546
0.00596587
0.00583935
0.00566148
0.00543353
0.00516476
0.00485686
0.0045216
0.00416091
0.00378762
0.00340365
0.00302158
0.00264308
0.00227921
0.00193124
0.00160777
0.00130951
0.00104204
0.000805476
0.000602116
0.000431505
0.000292873
0.000185277
0.000105397
5.19651e-05
2.0001e-05
9.29039e-06
1.87492e-05
5.27369e-05
0.00012973
0.000262478
0.000496975
0.000853138
0.00140571
0.00216769
0.00322124
0.0045581
0.00623096
0.0082206
0.0105294
0.0131298
0.0159629
0.0189459
0.0218801
0.0246495
0.0266776
0.0280018
0.0281365
0.0272284
0.0267542
0.0219754
0.0223518
0.0231723
0.0230584
0.0219082
0.0202906
0.0179553
0.0156336
0.0132077
0.0109749
0.00891779
0.00709594
0.0055066
0.00416014
0.00305055
0.002159
0.00149169
0.000981387
0.000633222
0.000380607
0.000221958
0.000113541
5.25025e-05
1.79178e-05
8.5665e-06
2.30679e-05
6.22164e-05
0.000131692
0.000232101
0.000367768
0.000539032
0.000747245
0.000992415
0.00127204
0.00158576
0.00192684
0.00229458
0.00267826
0.00307692
0.00347681
0.0038768
0.00426169
0.00463025
0.00496772
0.00527294
0.00553344
0.00574824
0.00590875
0.0060143
0.0060611
0.00604892
0.00597919
0.00585199
0.0056736
0.00544457
0.00517494
0.00486568
0.00452936
0.00416717
0.00379269
0.00340725
0.003024
0.00264421
0.00227927
0.0019303
0.00160596
0.00130707
0.00103901
0.000802198
0.000598532
0.000428046
0.000289397
0.000182226
0.000102576
4.97617e-05
1.82177e-05
7.02384e-06
1.64839e-05
4.7606e-05
0.000124625
0.000250415
0.000485072
0.00083061
0.00138371
0.00213846
0.00319318
0.0045406
0.00620813
0.00820422
0.0105069
0.0131201
0.0159473
0.0190112
0.021918
0.0248166
0.0268033
0.0281893
0.028297
0.0272531
0.0267726
0.0221144
0.0225006
0.0233217
0.0232231
0.0220762
0.0204626
0.0181315
0.015799
0.0133771
0.011121
0.00906712
0.00721436
0.00562748
0.00424745
0.00313959
0.00221695
0.00154752
0.00101039
0.000663976
0.000393976
0.000237362
0.000119759
6.03666e-05
2.05559e-05
1.18956e-05
2.25075e-05
6.16486e-05
0.000129122
0.000229512
0.00036563
0.000536861
0.000748407
0.000993531
0.00127947
0.00159314
0.00194326
0.00231094
0.00270578
0.00310436
0.00351662
0.00391653
0.00431389
0.00468238
0.00503123
0.0053364
0.00560609
0.00582085
0.0059874
0.00609293
0.00614199
0.00612981
0.00605829
0.00593112
0.00574704
0.00551804
0.00523938
0.00493017
0.00458236
0.00422024
0.00383296
0.0034476
0.00305151
0.00267179
0.00229517
0.00194627
0.00161242
0.00131359
0.00103887
0.000802107
0.000594971
0.000424516
0.000285481
0.00017833
0.000100923
4.81181e-05
2.08628e-05
9.11447e-06
2.45608e-05
5.40007e-05
0.000142146
0.000265442
0.000522394
0.000865543
0.0014544
0.00221186
0.00330848
0.00465363
0.00636538
0.00835824
0.0106995
0.0133085
0.0161622
0.0192212
0.0221375
0.025031
0.0270099
0.0283917
0.0284796
0.0274349
0.0269424
0.0222646
0.0226613
0.0234831
0.0234009
0.0222577
0.0206484
0.0183218
0.0159777
0.01356
0.0112788
0.00922837
0.00734223
0.00575802
0.00434173
0.00323574
0.00227954
0.00161126
0.00104781
0.000701994
0.000414333
0.00025795
0.000129719
7.03791e-05
2.41489e-05
1.54905e-05
2.19023e-05
6.10355e-05
0.000126346
0.000226716
0.00036332
0.000534517
0.000749661
0.000994735
0.0012875
0.0016011
0.00196099
0.00232859
0.00273549
0.00313399
0.0035596
0.00395943
0.00437026
0.00473867
0.00509982
0.00540492
0.00568454
0.00589925
0.00607233
0.00617783
0.00622934
0.00621717
0.00614371
0.00601656
0.00582633
0.00559739
0.00530896
0.00499981
0.00463959
0.00427754
0.00387646
0.00349117
0.00308122
0.00270158
0.00231234
0.00196351
0.00161939
0.00132062
0.00103872
0.000802009
0.000591125
0.000420705
0.000281251
0.000174122
9.91371e-05
4.63432e-05
2.37192e-05
1.19731e-05
3.47553e-05
6.41474e-05
0.000165381
0.00028842
0.000568461
0.000910882
0.00153515
0.00229111
0.00343299
0.00477568
0.00653519
0.00852455
0.0109076
0.013512
0.0163943
0.0194479
0.0223746
0.0252624
0.0272329
0.0286103
0.0286768
0.0276312
0.0271257
0.0224268
0.0228348
0.0236574
0.023593
0.0224537
0.020849
0.0185273
0.0161706
0.0137575
0.0114491
0.0094025
0.00748031
0.00589897
0.00444354
0.00333957
0.00234712
0.0016801
0.00108822
0.000743047
0.000436316
0.000280182
0.000140474
8.1191e-05
2.80287e-05
1.93724e-05
2.12487e-05
6.03734e-05
0.000123349
0.000223697
0.000360826
0.000531986
0.000751015
0.000996036
0.00129617
0.0016097
0.00198014
0.00234766
0.00276757
0.00316598
0.00360601
0.00400576
0.00443112
0.00479945
0.00517389
0.00547892
0.00576924
0.00598391
0.00616404
0.00626952
0.00632367
0.00631149
0.00623595
0.00610883
0.00591196
0.00568306
0.00538409
0.00507501
0.00470139
0.00433942
0.00392342
0.00353822
0.0031133
0.00273374
0.00233088
0.00198213
0.00162691
0.00132821
0.00103857
0.000801904
0.000586973
0.00041659
0.000276684
0.000169579
9.7209e-05
4.44267e-05
2.68036e-05
1.506e-05
4.57637e-05
7.51043e-05
0.00019047
0.000313233
0.000618206
0.000959841
0.00162236
0.0023767
0.00356744
0.00490748
0.00671856
0.00870414
0.0111322
0.0137318
0.0166449
0.0196927
0.0226305
0.0255123
0.0274737
0.0288464
0.0288897
0.0278432
0.0273237
0.0226019
0.0230221
0.0238456
0.0238004
0.0226653
0.0210656
0.0187492
0.0163789
0.0139708
0.0116331
0.00959053
0.00762942
0.00605118
0.00455348
0.00345169
0.0024201
0.00175443
0.00113186
0.000787379
0.000460054
0.00030419
0.000152088
9.28661e-05
3.22183e-05
2.35642e-05
2.05431e-05
5.96584e-05
0.000120112
0.000220436
0.000358133
0.000529252
0.000752478
0.00099744
0.00130553
0.00161899
0.00200082
0.00236825
0.00280221
0.00320053
0.00365613
0.00405578
0.00449685
0.00486509
0.00525386
0.00555883
0.00586072
0.00607533
0.00626307
0.00636853
0.00642552
0.00641335
0.00633555
0.00620846
0.00600442
0.00577558
0.00546522
0.00515621
0.00476813
0.00440624
0.00397414
0.00358902
0.00314794
0.00276847
0.00235091
0.00200224
0.00163504
0.00133641
0.0010384
0.000801789
0.000582488
0.000412146
0.000271753
0.000164672
9.51269e-05
4.23571e-05
3.01343e-05
1.83933e-05
5.7651e-05
8.6936e-05
0.000217563
0.000340027
0.000671923
0.00101271
0.00171652
0.00246911
0.00371263
0.00504979
0.00691657
0.00889807
0.0113748
0.0139691
0.0169156
0.019957
0.022907
0.0257821
0.0277338
0.0291013
0.0291197
0.0280721
0.0275374
0.022791
0.0232244
0.0240488
0.0240244
0.0228938
0.0212995
0.0189888
0.0166039
0.0142011
0.0118317
0.00979357
0.00779043
0.00621554
0.0046722
0.00357276
0.0024989
0.0018347
0.00117898
0.000835249
0.000485687
0.000330113
0.000164628
0.000105473
3.67424e-05
2.80907e-05
1.9781e-05
5.88864e-05
0.000116617
0.000216916
0.000355225
0.000526301
0.000754057
0.000998957
0.00131564
0.00162902
0.00202315
0.00239048
0.00283962
0.00323783
0.00371026
0.0041098
0.00456782
0.00493597
0.00534023
0.00564511
0.00595949
0.00617405
0.00637001
0.00647544
0.00653551
0.00652334
0.00644311
0.00631605
0.00610427
0.00587549
0.00555283
0.0052439
0.00484019
0.0044784
0.0040289
0.00364389
0.00318535
0.00280597
0.00237253
0.00202395
0.00164382
0.00134526
0.00103821
0.000801666
0.000577646
0.000407347
0.000266427
0.000159374
9.28786e-05
4.01223e-05
3.37309e-05
2.19927e-05
7.04874e-05
9.97124e-05
0.000246818
0.00036896
0.000729929
0.0010698
0.00181821
0.00256891
0.00386941
0.00520347
0.00713038
0.00910748
0.0116367
0.0142253
0.0172078
0.0202424
0.0232055
0.0260735
0.0280146
0.0293765
0.0293679
0.0283193
0.0277683
0.0229952
0.0234429
0.0242682
0.0242663
0.0231406
0.0215521
0.0192475
0.0168468
0.0144498
0.0120462
0.0100128
0.00796429
0.00639303
0.00480039
0.0037035
0.00258399
0.00192137
0.00122987
0.000886942
0.000513366
0.000358107
0.000178171
0.000119087
4.16277e-05
3.29787e-05
1.89582e-05
5.80528e-05
0.000112843
0.000213114
0.000352085
0.000523113
0.000755762
0.00100059
0.00132655
0.00163985
0.00204726
0.00241449
0.00288001
0.00327812
0.0037687
0.00416813
0.00464446
0.0050125
0.00543349
0.00573829
0.00606615
0.00628066
0.00648549
0.00659089
0.00665428
0.00664211
0.00655925
0.00643223
0.00621209
0.00598337
0.00564743
0.00533859
0.00491801
0.00455632
0.00408804
0.00370313
0.00322574
0.00284647
0.00239588
0.00204739
0.0016533
0.00135482
0.00103802
0.000801533
0.000572417
0.000402165
0.000260676
0.000153653
9.04508e-05
3.77091e-05
3.76147e-05
2.58796e-05
8.43487e-05
0.000113509
0.00027841
0.000400203
0.000792566
0.00113145
0.00192801
0.00267667
0.0040387
0.00536942
0.00736127
0.00933362
0.0119196
0.014502
0.0175233
0.0205507
0.0235278
0.0263881
0.0283179
0.0296737
0.029636
0.0285862
0.0280176
0.0233667
0.0238202
0.0245929
0.0245822
0.0235134
0.0219015
0.0196376
0.0172078
0.0148036
0.0123732
0.0103285
0.00824381
0.00665036
0.0050184
0.00388502
0.00273318
0.00203432
0.00131941
0.000951453
0.000561282
0.00039242
0.00020109
0.000136098
5.13548e-05
3.95596e-05
2.1581e-05
5.77506e-05
0.000110497
0.000210179
0.000349594
0.000522818
0.000758835
0.00100889
0.00134124
0.00166267
0.00207924
0.00245706
0.00293389
0.00334423
0.00384734
0.00425965
0.0047486
0.005129
0.00556154
0.00587701
0.00621418
0.00643663
0.0066476
0.00675738
0.00682308
0.00681128
0.00672659
0.00659581
0.0063699
0.00613361
0.00578851
0.00546903
0.00503679
0.00466243
0.00418119
0.00378283
0.00329241
0.0029002
0.00243776
0.00207801
0.00167427
0.00136713
0.00104359
0.00080158
0.000568955
0.000396465
0.000254597
0.000148358
8.74459e-05
3.79966e-05
4.22683e-05
3.43919e-05
0.000101176
0.000137457
0.000316599
0.000455551
0.000870102
0.00124196
0.00207046
0.00286786
0.00427354
0.00565308
0.00769677
0.00969668
0.012328
0.0149213
0.0179733
0.0210046
0.0240142
0.0268196
0.0287758
0.0300602
0.0300327
0.029049
0.0284731
0.0239338
0.0243878
0.0249484
0.0249425
0.0239626
0.0223625
0.0201974
0.0177836
0.0153683
0.012953
0.0108255
0.00875289
0.00704866
0.00542575
0.00417622
0.00303047
0.00222467
0.00151316
0.00106204
0.000673352
0.000450234
0.000259368
0.000162708
7.80264e-05
4.91903e-05
3.12175e-05
5.8583e-05
0.000111312
0.000209277
0.000348647
0.000528598
0.000764538
0.00103049
0.00136273
0.00170888
0.00212532
0.00253526
0.00301193
0.00345941
0.00396237
0.00441373
0.00490253
0.0053204
0.0057528
0.00610064
0.00643771
0.00668424
0.00689514
0.00701825
0.00708393
0.00707321
0.00698855
0.00684633
0.00662049
0.00636124
0.00601626
0.0056645
0.0052324
0.00481961
0.00433852
0.00389935
0.00340909
0.00297759
0.0025153
0.00212134
0.00171774
0.00138425
0.00106081
0.000802
0.000569449
0.000390108
0.000248286
0.000144351
8.34582e-05
4.39141e-05
4.81844e-05
5.92519e-05
0.000125983
0.000199891
0.000378541
0.000587633
0.00100044
0.00148466
0.00230888
0.00325213
0.00464989
0.00618475
0.00821658
0.0103572
0.0129728
0.0156608
0.0186935
0.0217234
0.024713
0.0273856
0.0293273
0.0305004
0.030467
0.0297464
0.0291699
0.0245338
0.0249883
0.025479
0.0254773
0.0244946
0.0229063
0.0208019
0.0184055
0.0159781
0.0135792
0.0113621
0.00930261
0.00747876
0.00586562
0.00449066
0.0033515
0.00243022
0.00172238
0.00118146
0.000794369
0.000512663
0.000322299
0.000191444
0.000106827
5.95899e-05
4.16234e-05
5.94819e-05
0.000112193
0.000208302
0.000347624
0.000534838
0.000770697
0.00105381
0.00138594
0.00175878
0.00217508
0.0026197
0.00309621
0.00358379
0.00408657
0.00458011
0.00506874
0.00552709
0.00595933
0.00634213
0.00667908
0.00695162
0.00716244
0.00729994
0.0073656
0.00735605
0.00727141
0.00711685
0.00689109
0.00660705
0.00626219
0.00587557
0.00544363
0.00498933
0.00450842
0.00402517
0.00353508
0.00306115
0.00259902
0.00216813
0.00176467
0.00140274
0.00107941
0.000802453
0.000569984
0.000383244
0.000241471
0.000140023
7.91521e-05
5.0304e-05
5.45729e-05
8.60968e-05
0.00015277
0.000267309
0.000445429
0.000730261
0.00114118
0.00174674
0.00256633
0.00366709
0.00505628
0.00675888
0.00877788
0.0110704
0.013669
0.0164594
0.0194712
0.0224996
0.0254675
0.0280547
0.0299819
0.0311541
0.0311157
0.0304837
0.0299065
0.024981
0.0254359
0.0263189
0.0263285
0.0253386
0.0237733
0.0215258
0.0191503
0.0165896
0.0142067
0.0118572
0.00980938
0.00784397
0.0062388
0.00473215
0.00359768
0.00257482
0.00186928
0.00126122
0.000875074
0.000553154
0.000363095
0.000208131
0.000123565
5.68767e-05
3.89169e-05
4.25698e-05
9.52606e-05
0.000186118
0.000325388
0.000519231
0.000755
0.00105801
0.00139001
0.00179582
0.00221196
0.00270075
0.00317708
0.00371663
0.00421922
0.00476795
0.00525639
0.00576791
0.00619999
0.00662867
0.00696549
0.00727194
0.00748268
0.00763852
0.00770415
0.00769538
0.00761078
0.00743923
0.00721356
0.00689644
0.0065517
0.00611927
0.00568749
0.00517931
0.00469858
0.00415879
0.00366888
0.00314127
0.00267932
0.0022025
0.00179919
0.00140284
0.00107964
0.000781903
0.000549521
0.00035601
0.000214291
0.000118717
5.78686e-05
4.44958e-05
4.8763e-05
0.000101322
0.000167953
0.000310131
0.000487939
0.000822793
0.00123264
0.00192643
0.00274321
0.00398074
0.00536391
0.00724361
0.00925219
0.0117302
0.0143134
0.0172677
0.0202587
0.0234414
0.0263827
0.0291287
0.0310273
0.0321955
0.0321432
0.0310248
0.0304472
0.0254657
0.0259224
0.0271673
0.0271772
0.0262451
0.0246815
0.0223079
0.0199552
0.0172455
0.0148799
0.0123853
0.0103501
0.00823214
0.00663546
0.00498306
0.00385357
0.00271848
0.00201539
0.00133712
0.000951997
0.000590582
0.000400853
0.000223469
0.000138957
5.31975e-05
3.5245e-05
2.33463e-05
7.60158e-05
0.000161027
0.00030024
0.000501176
0.00073685
0.00106141
0.00139328
0.00183491
0.00225089
0.00278773
0.00326387
0.00386
0.00436239
0.00497121
0.00545946
0.0060289
0.00646081
0.00693948
0.00727616
0.00761952
0.00783018
0.00800599
0.00807159
0.00806363
0.00797906
0.00778898
0.00756339
0.00721022
0.00686562
0.00638328
0.00595167
0.00538482
0.00490428
0.00430296
0.00381325
0.00322724
0.00276547
0.00223875
0.0018356
0.00140188
0.00107881
0.000758582
0.000526294
0.000325537
0.000183875
9.48157e-05
3.3992e-05
3.75408e-05
4.18063e-05
0.000115191
0.000181778
0.000349423
0.000526894
0.000910132
0.00131882
0.00210408
0.00291787
0.00430611
0.00568291
0.00775871
0.00975621
0.0124344
0.0150012
0.0181356
0.0211042
0.0244592
0.0273717
0.0302532
0.0321498
0.0332332
0.03318
0.0316131
0.0310333
0.0260998
0.0266044
0.0278526
0.0279476
0.0270325
0.0255123
0.0231616
0.0207845
0.0180825
0.0156387
0.0131459
0.0109913
0.00887118
0.00713364
0.00547151
0.004203
0.00305625
0.00223682
0.00155048
0.00108225
0.000715543
0.000473297
0.000293781
0.00017496
8.96816e-05
4.42904e-05
3.11877e-05
6.54974e-05
0.00015002
0.000282883
0.000484288
0.000727974
0.00105408
0.00140903
0.00185327
0.00230627
0.00284663
0.00337086
0.00397114
0.00452832
0.00514157
0.00568595
0.00625966
0.00674331
0.00722567
0.0076042
0.00795029
0.00818832
0.0083656
0.00844095
0.00843306
0.00833932
0.00814787
0.00789498
0.00753915
0.00715192
0.0066659
0.00618088
0.0056097
0.00507073
0.00446488
0.00391797
0.00332766
0.00281588
0.00228549
0.00184444
0.00140799
0.0010624
0.000740549
0.000502365
0.000301127
0.000169372
8.08545e-05
4.30488e-05
4.7911e-05
8.51623e-05
0.000157422
0.000265731
0.000435461
0.000679875
0.00106948
0.00158791
0.00238373
0.0033529
0.00475713
0.00631738
0.00840658
0.0105835
0.0132645
0.015974
0.0191055
0.0221575
0.0255005
0.0284278
0.0312791
0.0331116
0.0341742
0.0340133
0.0324423
0.0318038
0.0267845
0.0273407
0.0285926
0.0287795
0.0278827
0.0264093
0.0240842
0.0216799
0.0190027
0.0164613
0.0139892
0.0116887
0.00958474
0.00767675
0.00602634
0.00458918
0.00344992
0.00248833
0.00180598
0.00123445
0.000869413
0.000559708
0.000380627
0.000217704
0.000132468
5.51478e-05
4.20514e-05
5.49989e-05
0.000139481
0.00026496
0.00046627
0.000719288
0.00104524
0.00142706
0.00187109
0.00236719
0.0029073
0.0034875
0.0040875
0.00470845
0.00532141
0.00593113
0.00650457
0.00704843
0.00753057
0.00795781
0.00830374
0.00857362
0.00875082
0.0088375
0.00882962
0.0087252
0.00853385
0.00824918
0.00789351
0.00745667
0.00697087
0.0064237
0.00585279
0.00524581
0.00464024
0.00402676
0.00343673
0.00286674
0.0023366
0.00185143
0.00141519
0.00104337
0.000721675
0.000476622
0.00027548
0.000155247
6.67716e-05
5.57471e-05
6.06069e-05
0.000136242
0.000208466
0.000370407
0.000539632
0.000869905
0.00125745
0.00191213
0.00270287
0.00386174
0.00525623
0.00703901
0.0091129
0.011507
0.0141671
0.0170513
0.0201563
0.0233128
0.0266245
0.0295673
0.0323869
0.0341502
0.0351903
0.0349131
0.0333377
0.0326358
0.0275238
0.0281359
0.0293916
0.0296778
0.0288009
0.027378
0.0250804
0.0226467
0.0199964
0.0173497
0.0148999
0.0124418
0.0103553
0.00826324
0.00662548
0.0050062
0.00387501
0.00275993
0.00208188
0.0013988
0.00103557
0.000653018
0.000474408
0.000263861
0.000178671
6.68722e-05
5.37824e-05
4.36622e-05
0.000128101
0.000245606
0.000446813
0.000709908
0.00103569
0.00144653
0.00189033
0.00243298
0.00297281
0.00361346
0.00421315
0.00490296
0.00551561
0.00619589
0.00676904
0.00737792
0.00785981
0.00833965
0.0086854
0.00898968
0.00916679
0.00926572
0.00925784
0.00914189
0.00895064
0.00863165
0.00827616
0.00778575
0.0073002
0.0066859
0.00611528
0.00543487
0.00482961
0.00414423
0.0035545
0.00292166
0.00239179
0.00185898
0.00142296
0.00102282
0.000701295
0.000448824
0.000247785
0.000139994
5.15642e-05
6.94592e-05
7.43166e-05
0.0001914
0.000263584
0.00048344
0.000652121
0.00107511
0.00146044
0.00226224
0.00304748
0.0044112
0.00579518
0.00781827
0.00987563
0.0125043
0.0151417
0.0182146
0.0212909
0.0245603
0.0278382
0.0307977
0.0335832
0.0352717
0.0362876
0.0358848
0.0343046
0.0335342
0.0284647
0.0290943
0.0299963
0.0303337
0.0296115
0.0282435
0.0261205
0.0236969
0.0210933
0.0184206
0.0159283
0.0134203
0.0112429
0.00908768
0.00733112
0.00564549
0.00438545
0.00321146
0.00241828
0.00168951
0.0012412
0.000826181
0.0005921
0.00035969
0.000239754
0.000114541
7.52845e-05
5.61668e-05
0.000124267
0.000238619
0.000435084
0.000702018
0.00103598
0.001458
0.00192271
0.00248333
0.00305511
0.00371911
0.00435873
0.00507517
0.00573165
0.00643922
0.00705545
0.00768949
0.00820899
0.00870919
0.00908281
0.0094004
0.0095923
0.00969597
0.00968788
0.00956749
0.00936075
0.00902848
0.00864377
0.00813262
0.00760728
0.006967
0.00635052
0.0056417
0.00498976
0.00427658
0.00364475
0.00298761
0.00242498
0.00187378
0.0014179
0.00100686
0.000680272
0.000424997
0.000233744
0.000130847
6.52897e-05
9.44619e-05
0.000133136
0.000266352
0.000382158
0.000628615
0.000868592
0.00133284
0.00183137
0.00269338
0.00363319
0.00507554
0.0066292
0.00873987
0.0109453
0.0136542
0.0163943
0.0195255
0.0226378
0.0259318
0.0291363
0.0320754
0.0346394
0.0362559
0.0370828
0.0366166
0.0354728
0.0346809
0.029393
0.0300233
0.0309649
0.0313125
0.0306591
0.0293169
0.0272869
0.0248967
0.0222932
0.0196524
0.0170442
0.0145632
0.012198
0.0100643
0.00808961
0.00641957
0.00493967
0.00377531
0.0027888
0.00206483
0.00147091
0.00105768
0.000723348
0.00049124
0.000303711
0.000178574
9.23274e-05
7.32211e-05
0.000111157
0.00022544
0.000412823
0.000679598
0.00102816
0.00144992
0.0019527
0.00251298
0.00314324
0.00380684
0.00451976
0.00523577
0.00597285
0.00668
0.00737551
0.00800918
0.00859789
0.00909778
0.00952263
0.00984003
0.0100591
0.0101627
0.0101541
0.0100338
0.00979859
0.00946652
0.00902814
0.00851729
0.00791899
0.0072791
0.00657864
0.00587024
0.00513298
0.00442022
0.00371152
0.00305477
0.00243241
0.00188153
0.00138948
0.000978682
0.000642874
0.000387751
0.000214208
0.000111372
8.71676e-05
0.000116322
0.000214911
0.000348047
0.000547773
0.000793877
0.00116203
0.00162404
0.00231548
0.0031713
0.00436998
0.00579969
0.00764288
0.00973303
0.0122132
0.0148941
0.0178533
0.0209501
0.024179
0.027433
0.0306114
0.0335093
0.0359448
0.0375299
0.0382677
0.0377891
0.0366004
0.0358076
0.0300612
0.0306971
0.0322988
0.032664
0.0321594
0.0308389
0.0287125
0.0263592
0.0235889
0.0209827
0.0181759
0.0157221
0.013114
0.0110012
0.00875839
0.00710182
0.00538356
0.00422688
0.00306659
0.00234634
0.00164012
0.00122831
0.000825571
0.000593743
0.000345423
0.000220202
7.48101e-05
5.55866e-05
5.30359e-05
0.000167162
0.00034124
0.000607816
0.000974126
0.00139565
0.00194736
0.00250737
0.00321394
0.00387726
0.00468654
0.00540226
0.00624574
0.0069526
0.00775295
0.00838638
0.00906659
0.0095663
0.0100588
0.0103761
0.0106308
0.0107344
0.010725
0.0106047
0.0103318
0.00999981
0.00949075
0.00898008
0.00828603
0.00764637
0.00683608
0.00612794
0.00527942
0.00456694
0.00375834
0.00310188
0.00240216
0.00185156
0.00131289
0.000902343
0.000554821
0.000299918
0.000149274
4.66249e-05
7.54008e-05
0.000104709
0.000276346
0.000409603
0.000682539
0.000928313
0.00138112
0.00184133
0.00267833
0.00352937
0.00495859
0.00637823
0.00853751
0.0106099
0.013436
0.0160894
0.0193452
0.0224068
0.0258592
0.0290694
0.0324222
0.0352745
0.0378013
0.0393595
0.0399042
0.0394039
0.0374036
0.0366041
0.0309816
0.0316999
0.0333063
0.0338454
0.0333672
0.0321982
0.0301108
0.0278162
0.0250847
0.0224197
0.0196458
0.0170332
0.0144521
0.0121097
0.0098836
0.00796753
0.00625523
0.00485149
0.00369242
0.00277048
0.00206263
0.00150486
0.00110183
0.000763937
0.000518815
0.000304088
0.000158797
6.84972e-05
6.59483e-05
0.000134247
0.000308204
0.000560028
0.000926082
0.00136612
0.00191744
0.0025274
0.00323348
0.00397253
0.00478125
0.00558962
0.00643251
0.00723789
0.00803768
0.00876352
0.00944327
0.0100178
0.01051
0.0108751
0.0111296
0.0112476
0.0112382
0.0110965
0.0108237
0.0104367
0.00992799
0.00933505
0.00864149
0.00790245
0.00709272
0.00628056
0.00543264
0.00462476
0.00381672
0.00308577
0.00238654
0.00179213
0.00125385
0.000836128
0.000488848
0.000264858
0.00011432
7.75131e-05
0.000106269
0.000229108
0.000400624
0.00064746
0.000915745
0.00129593
0.00174865
0.00239792
0.00323688
0.00435197
0.00577961
0.00751912
0.00967063
0.0120678
0.014872
0.0177968
0.0210176
0.0242498
0.0276604
0.0309149
0.034219
0.0369785
0.0394576
0.0408218
0.0413345
0.0406217
0.0386157
0.0377168
0.0319755
0.0327827
0.0343872
0.0351212
0.0346714
0.0336661
0.0316208
0.0293895
0.0267018
0.0239714
0.0212366
0.018449
0.0159006
0.0133068
0.0111064
0.0089044
0.00721019
0.00553301
0.00438471
0.00323747
0.00253474
0.00181102
0.00140954
0.00095098
0.000706051
0.000394671
0.000249489
8.24386e-05
7.98917e-05
9.87037e-05
0.000272529
0.000508425
0.000874203
0.00133422
0.00188513
0.00254903
0.00325457
0.00407541
0.00488352
0.00579194
0.00663419
0.00754595
0.00834514
0.00917078
0.00985001
0.0105054
0.0109972
0.0114139
0.0116683
0.0118018
0.0117924
0.0116275
0.011355
0.0109085
0.0104001
0.00971837
0.00902532
0.00817897
0.00736985
0.00644537
0.00559809
0.00468718
0.00387976
0.00306838
0.00236968
0.00172797
0.00119009
0.000764626
0.000417607
0.000226999
7.65748e-05
0.000110867
0.000139602
0.000363438
0.000534826
0.000904307
0.00117238
0.00170548
0.00215621
0.00302025
0.00385248
0.00526232
0.00667577
0.00876914
0.0108969
0.0136519
0.0164226
0.0196446
0.0228235
0.0262438
0.0296054
0.0329094
0.0361593
0.0388186
0.0412462
0.0424007
0.042879
0.041928
0.0399245
0.0389182
0.0333447
0.0341648
0.0351399
0.0359117
0.0357279
0.0347974
0.033127
0.0309479
0.0284453
0.0257387
0.0230047
0.0202155
0.01755
0.0149347
0.0125411
0.0103037
0.00836482
0.00664638
0.00524226
0.00405465
0.00313043
0.0023713
0.00179813
0.0013115
0.000945356
0.000615644
0.000377893
0.000196231
0.000123613
0.00013292
0.000262457
0.000495139
0.000846069
0.00130962
0.00187534
0.00254914
0.00329594
0.00413191
0.0050014
0.0059284
0.00684347
0.00777503
0.00864843
0.00949266
0.0102373
0.0109078
0.011447
0.0118733
0.0121502
0.0122866
0.0122713
0.0121021
0.0117954
0.0113378
0.0107711
0.0100728
0.00930496
0.00843859
0.00754851
0.00660311
0.00568013
0.00475008
0.00388351
0.00305725
0.00232546
0.00167511
0.00113676
0.000710099
0.000398024
0.000213948
0.000132533
0.000180441
0.000306992
0.000550051
0.000844181
0.00123694
0.00166211
0.00223079
0.00290471
0.00381431
0.00493596
0.00639822
0.00814015
0.0102863
0.0127127
0.0155108
0.0184971
0.0217416
0.0250325
0.0284484
0.0317795
0.0350477
0.0380539
0.0406449
0.0426127
0.0436747
0.0438331
0.0428363
0.0416079
0.0405862
0.0340674
0.0348877
0.0368451
0.0376293
0.0376857
0.0367867
0.0351334
0.0330131
0.0304529
0.0278002
0.0249137
0.0221706
0.0192379
0.0166601
0.0139163
0.0117069
0.00940601
0.00770557
0.0059887
0.00481087
0.00364747
0.00289251
0.00215163
0.00166588
0.00115309
0.000823669
0.000444399
0.000262897
7.7706e-05
8.70045e-05
0.000148413
0.00038089
0.000715291
0.00117843
0.00178016
0.00245337
0.00328324
0.00411848
0.00510685
0.00603304
0.0070871
0.00801784
0.00903207
0.00987556
0.0107442
0.0114141
0.0120439
0.0124699
0.0127914
0.0129276
0.0129042
0.0127352
0.0123678
0.0119106
0.0112381
0.0105403
0.00963497
0.00876937
0.00772833
0.00678376
0.00571693
0.0047877
0.00380443
0.0029789
0.00217459
0.00152481
0.000969798
0.000543511
0.000275518
9.1604e-05