/*--------------------------------*- C++ -*----------------------------------*\
| =========                 |                                                 |
| \\      /  F ield         | OpenFOAM: The Open Source CFD Toolbox           |
|  \\    /   O peration     | Version:  v2106                                 |
|   \\  /    A nd           | Website:  www.openfoam.com                      |
|    \\/     M anipulation  |                                                 |
\*---------------------------------------------------------------------------*/
FoamFile
{
    version     2.0;
    format      ascii;
    arch        "LSB;label=32;scalar=64";
    class       volScalarField;
    location    "0";
    object      expGpCoeffs28;
}
// * * * * * * * * * * * * * * * * * * * * * * * * * * * * * * * * * * * * * //

dimensions      [0 0 0 0 0 0 0];

internalField   nonuniform List<scalar> 
8000
(
0.000111547
8.30483e-05
0.000169452
0.000459388
0.00137808
0.00295127
0.00542512
0.00872639
0.0124811
0.0166624
0.0206225
0.0243108
0.0272378
0.0293722
0.0305314
0.0307408
0.030194
0.0289145
0.0273354
0.0254675
0.0236629
0.0219379
0.0203313
0.0188581
0.0173616
0.0158316
0.0142071
0.0124918
0.0107503
0.00899071
0.00730336
0.00569628
0.00425162
0.00297602
0.00192927
0.00111544
0.000560607
0.000265508
0.000216778
0.000411598
0.00079882
0.00137255
0.00205307
0.00283259
0.00361818
0.00440162
0.00509516
0.00569189
0.00612687
0.00639586
0.00646992
0.00634833
0.00604403
0.00555999
0.00494841
0.00421533
0.00344172
0.00263551
0.00189026
0.00121416
0.000694814
0.000339125
0.000211669
0.00031661
0.000683197
0.00131213
0.00219214
0.00332026
0.00464732
0.00616739
0.00780287
0.00954587
0.0113045
0.0130702
0.014774
0.0164118
0.0180513
0.0197019
0.0215465
0.0235675
0.0257482
0.0280693
0.0301612
0.0320119
0.03311
0.0334307
0.0326746
0.0308088
0.0279513
0.0241313
0.0198593
0.0151922
0.0108926
0.00698958
0.00398803
0.00197567
0.000734195
0.000249757
5.18584e-05
3.53915e-05
0.000113842
8.53493e-05
0.000141641
0.000431195
0.00130238
0.00287381
0.00535888
0.00865935
0.0124699
0.0166526
0.0206654
0.0243561
0.0273133
0.0294503
0.0306071
0.0308183
0.0302375
0.0289587
0.0273402
0.0254724
0.0236475
0.0219225
0.0203266
0.0188536
0.0173707
0.0158409
0.0142128
0.0124977
0.010748
0.00898862
0.00729316
0.00568628
0.00423491
0.00295947
0.0019086
0.00109488
0.000539355
0.000244295
0.000198501
0.000393297
0.000786579
0.00136023
0.00204879
0.00282822
0.00362224
0.00440558
0.00510625
0.0057029
0.00614227
0.00641122
0.00648603
0.00636446
0.00605712
0.00557313
0.00495533
0.00422235
0.00344059
0.00263449
0.0018808
0.00120478
0.000678365
0.000322721
0.000190943
0.000295871
0.0006617
0.00129056
0.00217348
0.00330146
0.00463453
0.0061544
0.00779788
0.00954066
0.0113079
0.0130734
0.0147812
0.0164187
0.0180433
0.0196937
0.0215252
0.023546
0.0257465
0.0280676
0.0302028
0.0320529
0.0331939
0.0335128
0.0327679
0.0308993
0.0280142
0.0241911
0.0198605
0.0151916
0.0108234
0.00692091
0.00389884
0.00188845
0.000697466
0.000213527
5.05288e-05
3.40655e-05
0.00011632
8.78341e-05
0.000111608
0.000400751
0.00122063
0.00279017
0.00528734
0.00858697
0.0124578
0.0166419
0.0207117
0.024405
0.0273949
0.0295347
0.0306888
0.030902
0.0302845
0.0290064
0.0273453
0.0254776
0.0236309
0.0219059
0.0203216
0.0188488
0.0173805
0.0158509
0.0142189
0.012504
0.0107455
0.00898637
0.00728214
0.00567548
0.00421685
0.00294159
0.00188629
0.00107267
0.000516408
0.000221388
0.000178765
0.000373534
0.000773362
0.00134694
0.00204418
0.00282349
0.00362662
0.00440985
0.00511823
0.0057148
0.00615891
0.00642782
0.00650344
0.00638188
0.00607125
0.00558733
0.00496281
0.00422993
0.00343938
0.00263338
0.00187058
0.00119465
0.000660603
0.000305008
0.000168562
0.000273475
0.000638486
0.00126726
0.00215333
0.00328115
0.00462072
0.00614038
0.00779249
0.00953503
0.0113115
0.0130768
0.0147889
0.0164262
0.0180347
0.0196849
0.0215021
0.0235229
0.0257447
0.0280659
0.0302477
0.0320972
0.0332846
0.0336015
0.0328687
0.030997
0.028082
0.0242558
0.0198618
0.0151908
0.0107485
0.00684675
0.00380252
0.00179426
0.000657805
0.000174405
4.90931e-05
3.26336e-05
0.000118996
9.05172e-05
7.91781e-05
0.000367877
0.00113236
0.00269984
0.00521009
0.0085088
0.0124448
0.0166305
0.0207617
0.0244579
0.027483
0.0296258
0.030777
0.0309924
0.0303353
0.0290579
0.0273509
0.0254833
0.0236129
0.021888
0.0203161
0.0188436
0.0173911
0.0158618
0.0142255
0.0125109
0.0107428
0.00898393
0.00727023
0.00566382
0.00419736
0.00292229
0.00186219
0.0010487
0.000491628
0.000196651
0.000157453
0.000352193
0.000759089
0.00133258
0.00203919
0.00281839
0.00363135
0.00441447
0.00513116
0.00572764
0.00617687
0.00644574
0.00652223
0.00640069
0.0060865
0.00560266
0.00497089
0.00423811
0.00343806
0.00263219
0.00185954
0.00118371
0.000641423
0.000285881
0.000144394
0.000249292
0.000613419
0.00124209
0.00213157
0.00325923
0.00460581
0.00612525
0.00778668
0.00952896
0.0113154
0.0130805
0.0147973
0.0164343
0.0180255
0.0196754
0.0214771
0.0234979
0.0257428
0.028064
0.0302961
0.032145
0.0333826
0.0336973
0.0329776
0.0311025
0.0281553
0.0243256
0.0198631
0.01519
0.0106678
0.00676667
0.00369851
0.00169255
0.000614978
0.000132159
4.75428e-05
3.10874e-05
0.000121886
9.34145e-05
4.41587e-05
0.000337025
0.00103704
0.00260231
0.00512667
0.00842439
0.0124307
0.0166181
0.0208157
0.024515
0.0275781
0.0297241
0.0308723
0.03109
0.0303901
0.0291136
0.027357
0.0254894
0.0235935
0.0218686
0.0203102
0.0188379
0.0174025
0.0158734
0.0142326
0.0125183
0.0107399
0.0089813
0.00725738
0.00565123
0.00417631
0.00290144
0.00183617
0.00102281
0.000464869
0.000169941
0.00013444
0.000329148
0.000743676
0.00131707
0.00203381
0.00281288
0.00363647
0.00441945
0.00514513
0.00574151
0.00619626
0.00646509
0.00654252
0.006421
0.00610298
0.00561922
0.00497961
0.00424695
0.00343665
0.00263091
0.00184762
0.00117191
0.000620711
0.000265227
0.000118297
0.000223177
0.00058635
0.00121492
0.00210807
0.00323555
0.00458971
0.0061089
0.0077804
0.0095224
0.0113197
0.0130844
0.0148063
0.0164431
0.0180154
0.0196651
0.0214502
0.0234709
0.0257407
0.0280619
0.0303484
0.0321966
0.0334883
0.0338007
0.0330951
0.0312164
0.0282344
0.024401
0.0198646
0.0151892
0.0105805
0.00668019
0.0035862
0.00158272
0.000573122
8.65405e-05
4.58687e-05
2.94178e-05
0.000138927
0.000107687
6.69242e-05
0.000332388
0.000970392
0.00251553
0.0050377
0.00831487
0.0124131
0.016594
0.0208642
0.0245555
0.027665
0.0298064
0.0309716
0.031193
0.0304493
0.0291737
0.0273635
0.025496
0.0235725
0.0218478
0.0203039
0.0188318
0.0174277
0.0158955
0.0142503
0.0125327
0.0107443
0.00898272
0.00724895
0.00564046
0.00415739
0.00288115
0.00181089
0.000997271
0.000438505
0.000144419
0.000112494
0.000308976
0.00073087
0.00130667
0.00203317
0.00281483
0.00364865
0.00443398
0.00516832
0.00576637
0.00622646
0.00649597
0.0065743
0.00645241
0.00613069
0.00564549
0.00499833
0.00426345
0.00344325
0.00263491
0.00184137
0.00116316
0.000603362
0.000245986
9.37908e-05
0.000197752
0.000559999
0.00118887
0.00208555
0.0032146
0.00457606
0.00609793
0.00777914
0.00952462
0.0113323
0.0131009
0.0148276
0.0164681
0.0180046
0.019654
0.0214211
0.0234418
0.0257384
0.0280597
0.030405
0.0322524
0.0336008
0.033909
0.0331974
0.031322
0.0282961
0.0244707
0.0198534
0.0151851
0.0104609
0.00658559
0.00347844
0.00150116
0.000555041
0.000101312
5.4413e-05
4.13369e-05
0.000186998
0.00014562
0.000105066
0.00032738
0.000965398
0.00242988
0.00495074
0.00814574
0.012241
0.0163859
0.0206522
0.024375
0.027481
0.0297109
0.0308741
0.0312067
0.0304652
0.0292759
0.0274621
0.0256268
0.0237056
0.0219765
0.0204516
0.0189609
0.0175737
0.0160066
0.0143617
0.0126071
0.010819
0.0090236
0.00729015
0.00565502
0.00417223
0.00287978
0.00180972
0.000992105
0.000433444
0.00014759
0.000115671
0.000330781
0.000752596
0.00135396
0.00208033
0.00288991
0.00372358
0.00453421
0.00526842
0.00588461
0.00634462
0.0066218
0.00670012
0.00657396
0.00625229
0.00575156
0.00510452
0.00434562
0.00352557
0.00268917
0.00189578
0.00119078
0.000631091
0.000253495
0.000101329
0.000195953
0.000558132
0.00119113
0.00208765
0.00323473
0.00459594
0.00614799
0.00782888
0.0096131
0.0114205
0.0132316
0.014958
0.0166389
0.0181552
0.0198284
0.0215726
0.0236051
0.0258972
0.0281935
0.030542
0.0323012
0.0336485
0.0338293
0.0331194
0.0311329
0.0281106
0.0242344
0.0196215
0.0149818
0.0102611
0.0064733
0.00336793
0.00148139
0.000535517
0.000131601
8.4548e-05
8.34647e-05
0.000238907
0.000186582
0.000146254
0.000321973
0.000960004
0.00233739
0.00485683
0.0079631
0.0120552
0.0161612
0.0204232
0.02418
0.0272823
0.0296077
0.0307689
0.0312215
0.0304801
0.0293911
0.027579
0.0257977
0.0238785
0.0221567
0.0206328
0.0191182
0.0177312
0.0161266
0.0144821
0.0126874
0.0108998
0.00906773
0.00733464
0.00567074
0.00418825
0.0028783
0.00180846
0.000986526
0.000427979
0.000151015
0.000119102
0.000354327
0.000776057
0.00140503
0.00213125
0.00297098
0.00380448
0.00464245
0.0053765
0.0060123
0.00647221
0.00675768
0.00683598
0.0067052
0.0063836
0.00586609
0.00521918
0.00443435
0.00361447
0.00274777
0.00195454
0.00122061
0.000661033
0.000261604
0.000109469
0.00019401
0.000556116
0.00119358
0.00208992
0.00325647
0.0046174
0.00620204
0.00788259
0.00970865
0.0115157
0.0133728
0.0150988
0.0168234
0.0183394
0.0200428
0.0217858
0.0238179
0.0261076
0.0283537
0.0306998
0.0323534
0.0336999
0.0337433
0.0330351
0.0309286
0.0279103
0.0239793
0.0193711
0.0147623
0.0100455
0.00635205
0.00324861
0.00146004
0.000514433
0.000164308
0.000117089
0.000128956
0.00029496
0.000230813
0.00019073
0.000316134
0.000954181
0.00223752
0.00475542
0.00776588
0.0118545
0.0159185
0.020176
0.0239695
0.0270678
0.0294963
0.0306552
0.0312375
0.0304961
0.0295155
0.0277053
0.0259822
0.0240652
0.0223512
0.0208285
0.019288
0.0179014
0.0162562
0.014612
0.0127742
0.0109869
0.0091154
0.00738268
0.00568772
0.00420555
0.0028767
0.00180709
0.000980502
0.000422077
0.000154713
0.000122807
0.000379753
0.00080139
0.00146017
0.00218623
0.00305853
0.00389185
0.00475932
0.00549322
0.00615017
0.00660999
0.0069044
0.00698269
0.00684693
0.00652539
0.00598977
0.005343
0.00453017
0.00371047
0.00281104
0.00201798
0.00125282
0.000693366
0.000270361
0.000118259
0.000191912
0.000553939
0.00119622
0.00209236
0.00327995
0.00464057
0.0062604
0.00794059
0.00981182
0.0116184
0.0135252
0.0152508
0.0170226
0.0185382
0.0202744
0.0220161
0.0240476
0.0263347
0.0285266
0.0308701
0.0324097
0.0337555
0.0336504
0.0329442
0.0307081
0.027694
0.0237037
0.0191007
0.0145252
0.00981256
0.00622112
0.00311975
0.001437
0.000491666
0.000199627
0.000152228
0.000178079
0.000355489
0.000278577
0.000238757
0.000309828
0.000947892
0.00212967
0.00464592
0.00755292
0.0116378
0.0156564
0.019909
0.0237422
0.0268361
0.029376
0.0305325
0.0312548
0.0305135
0.0296498
0.0278416
0.0261815
0.0242668
0.0225613
0.0210398
0.0194714
0.0180851
0.0163961
0.0147523
0.0128679
0.011081
0.00916686
0.00743456
0.00570605
0.00422423
0.00287497
0.00180562
0.000973998
0.000415705
0.000158706
0.000126808
0.000407209
0.000828747
0.00151972
0.00224561
0.00315306
0.00398619
0.00488553
0.00561925
0.00629906
0.00675877
0.00706284
0.00714111
0.00699997
0.00667851
0.00612333
0.00547671
0.00463364
0.00381413
0.00287936
0.00208649
0.0012876
0.00072828
0.000279817
0.00012775
0.000189647
0.000551588
0.00119907
0.002095
0.00330529
0.0046656
0.00632343
0.00800321
0.00992323
0.0117294
0.0136898
0.015415
0.0172377
0.0187529
0.0205244
0.0222647
0.0242957
0.0265799
0.0287134
0.0310541
0.0324705
0.0338155
0.0335501
0.032846
0.03047
0.0274604
0.0234062
0.0188087
0.0142692
0.00956107
0.00607973
0.00298061
0.00141211
0.000467082
0.000237766
0.000190173
0.000231125
0.00042085
0.000330154
0.000290618
0.000303019
0.000941101
0.00201322
0.00452768
0.00732295
0.0114038
0.0153735
0.0196207
0.0234967
0.026586
0.029246
0.0304
0.0312734
0.0305322
0.0297949
0.0279889
0.0263967
0.0244845
0.0227881
0.0212679
0.0196695
0.0182836
0.0165472
0.0149038
0.012969
0.0111827
0.00922244
0.00749058
0.00572585
0.00424441
0.00287311
0.00180403
0.000966974
0.000408823
0.000163018
0.000131128
0.000436857
0.000858287
0.00158402
0.00230972
0.00325515
0.00408806
0.00502181
0.00575535
0.00645983
0.00691942
0.00723393
0.00731218
0.00716523
0.00684385
0.00626754
0.00562109
0.00474536
0.00392606
0.00295314
0.00216047
0.00132516
0.000765982
0.000290027
0.000138
0.000187201
0.000549049
0.00120216
0.00209786
0.00333266
0.00469262
0.00639148
0.00807084
0.0100435
0.0118493
0.0138675
0.0155923
0.0174699
0.0189848
0.0207945
0.0225332
0.0245636
0.0268448
0.0289151
0.0312527
0.0325362
0.0338803
0.0334418
0.03274
0.0302129
0.0272082
0.0230849
0.0184935
0.0139927
0.0092895
0.00592706
0.00283035
0.00138523
0.000440535
0.00027895
0.000231147
0.000288405
0.00049143
0.000385848
0.00034662
0.000295667
0.000933769
0.00188746
0.00439999
0.00707462
0.0111511
0.0150679
0.0193094
0.0232316
0.0263158
0.0291057
0.0302569
0.0312935
0.0305525
0.0299515
0.0281479
0.0266291
0.0247196
0.023033
0.0215143
0.0198834
0.0184978
0.0167103
0.0150674
0.0130783
0.0112924
0.00928246
0.00755107
0.00574722
0.00426619
0.00287109
0.00180231
0.000959389
0.000401392
0.000167674
0.000135793
0.000468872
0.000890186
0.00165345
0.00237896
0.00336538
0.00419806
0.00516898
0.00590231
0.00663344
0.00709291
0.00741868
0.00749691
0.00734368
0.00702239
0.00642328
0.005777
0.00486601
0.00404694
0.0030328
0.00224035
0.00136572
0.000806694
0.000301053
0.000149067
0.00018456
0.000546308
0.00120548
0.00210093
0.00336222
0.0047218
0.00646497
0.00814387
0.0101735
0.0119787
0.0140594
0.0157837
0.0177208
0.0192352
0.021086
0.0228231
0.0248529
0.0271308
0.0291329
0.0314673
0.0326071
0.0339502
0.0333249
0.0326254
0.0299352
0.0269359
0.022738
0.018153
0.0136942
0.00899624
0.0057622
0.0026681
0.00135621
0.000411868
0.000323421
0.000275392
0.000350259
0.000594665
0.000480547
0.000459976
0.000382644
0.000953847
0.00183551
0.00420932
0.00681026
0.0107771
0.014657
0.0188384
0.0228002
0.0259045
0.0287953
0.0300549
0.0312109
0.0305904
0.0300992
0.0283639
0.0269201
0.0250257
0.023359
0.0218361
0.0201777
0.0187843
0.0169616
0.0152812
0.0132547
0.0114357
0.00939152
0.00763291
0.00580213
0.00430268
0.00289123
0.00181461
0.000967711
0.000412798
0.000187485
0.000168398
0.000520404
0.000961662
0.00175086
0.00249987
0.00351462
0.00437032
0.00536688
0.00611879
0.00686832
0.00733867
0.00767225
0.00775177
0.00759418
0.00726427
0.0066494
0.00598599
0.00505066
0.00420898
0.00316639
0.00235
0.00144821
0.000868514
0.000342334
0.000177221
0.000203204
0.000562559
0.00122588
0.0021313
0.0034108
0.00479246
0.00656617
0.00827717
0.010346
0.0121898
0.0143137
0.0160814
0.0180594
0.019582
0.0214677
0.0232129
0.0252284
0.027499
0.0294258
0.0316947
0.0327155
0.033926
0.0331633
0.0323285
0.0295131
0.0264709
0.0222119
0.0176806
0.0132501
0.00867015
0.00551171
0.00257818
0.0013441
0.000481155
0.000421199
0.000357241
0.000442138
0.000735843
0.000621918
0.000585379
0.000509738
0.000987771
0.00187103
0.00393729
0.00653198
0.0101563
0.0140209
0.0180629
0.0220064
0.0252409
0.0281169
0.0297248
0.0308739
0.0306879
0.0301985
0.0288061
0.0273682
0.0256212
0.0239592
0.0223829
0.0207257
0.0192005
0.0173783
0.0155842
0.0135583
0.0116386
0.00959505
0.00775328
0.00592309
0.00436718
0.00295619
0.00185532
0.00100869
0.000462761
0.000237521
0.000257022
0.000608914
0.00111057
0.00189952
0.00271987
0.0037343
0.00465991
0.00565615
0.00646451
0.0072138
0.00771732
0.00805079
0.00813426
0.00797672
0.00762055
0.00700588
0.00629042
0.00535539
0.00444504
0.00340278
0.00251374
0.00161223
0.00096986
0.00044385
0.000239017
0.000264991
0.000617344
0.00128045
0.00221647
0.00349557
0.00494461
0.00671775
0.00852661
0.0105948
0.0125562
0.0146793
0.016579
0.0185564
0.020234
0.0221182
0.0239442
0.0259539
0.0280953
0.0300143
0.0319286
0.0329453
0.0336626
0.0329055
0.0316338
0.0288339
0.0255829
0.0213445
0.0169215
0.0125096
0.00830022
0.0051504
0.00257424
0.00133943
0.000591016
0.000529606
0.000484192
0.000568922
0.000891431
0.000777709
0.00069598
0.000622336
0.000968977
0.00185516
0.00364353
0.00623147
0.00948599
0.0133339
0.0172255
0.0211493
0.0245244
0.0273842
0.0293684
0.0305099
0.0307933
0.0303057
0.0292836
0.0278521
0.0262643
0.0246074
0.0229733
0.0213174
0.0196499
0.0178284
0.0159113
0.0138861
0.0118577
0.00981483
0.00788326
0.00605372
0.00443684
0.00302634
0.00189928
0.00105295
0.000516714
0.000291552
0.000352722
0.000704492
0.00127137
0.00206004
0.00295744
0.00397151
0.00497262
0.00596851
0.00683783
0.00758686
0.0081262
0.00845956
0.00854728
0.00838979
0.00800528
0.00739082
0.00661914
0.00568444
0.00469994
0.00365804
0.00269055
0.00178935
0.0010793
0.00055347
0.000305746
0.000331712
0.000676503
0.00133938
0.00230844
0.00358709
0.00510892
0.00688144
0.00879597
0.0108634
0.0129518
0.0150742
0.0171164
0.019093
0.0209381
0.0228207
0.0247339
0.0267374
0.0287393
0.0306498
0.0321811
0.0331935
0.0333783
0.0326272
0.0308837
0.0281004
0.0246239
0.0204078
0.0161018
0.0117099
0.00790076
0.00476025
0.00250645
0.00126945
0.000672353
0.000609116
0.00062361
0.000708163
0.00110993
0.000996496
0.000770239
0.000697598
0.000630984
0.00150814
0.00290086
0.00546811
0.00859265
0.0124171
0.0164325
0.0203381
0.0240842
0.0269352
0.0293817
0.0305248
0.0311886
0.030709
0.0299024
0.0284794
0.0269493
0.0252978
0.0236234
0.021969
0.0201971
0.0183762
0.0162953
0.0142708
0.0120721
0.01003
0.00795007
0.00612121
0.00439706
0.00298709
0.00180774
0.000961725
0.000434287
0.00020921
0.000337037
0.000688674
0.00136752
0.00215589
0.00319037
0.00420406
0.00534269
0.00633821
0.00732052
0.00806926
0.00867626
0.00900949
0.00910674
0.00894931
0.00851398
0.00789975
0.0070259
0.00609155
0.00497234
0.00393083
0.00282142
0.00192057
0.00108875
0.000563122
0.000238164
0.00026412
0.000593266
0.00125589
0.00227766
0.00355583
0.00519424
0.00696609
0.00904654
0.0111132
0.0133952
0.0155168
0.0177471
0.019723
0.0216925
0.0235735
0.0255487
0.0275458
0.0295169
0.0314169
0.0327478
0.0337493
0.0335335
0.0327778
0.0305031
0.0277269
0.0237809
0.0195835
0.0150728
0.010707
0.00699644
0.00388044
0.00204722
0.00082212
0.00069007
0.000626602
0.000811773
0.000896086
0.00134707
0.00123369
0.000893691
0.000796255
0.000279308
0.00116409
0.00209581
0.00463978
0.00761248
0.0114114
0.0155847
0.0194708
0.0236296
0.0264715
0.0294361
0.0305814
0.0316607
0.03119
0.0305919
0.0291782
0.0276868
0.0260412
0.0243278
0.0226749
0.0207913
0.0189712
0.0167115
0.0146879
0.0123024
0.0102611
0.00801827
0.00619015
0.00434792
0.00293852
0.00170142
0.000855747
0.000337718
0.000112732
0.000313702
0.000665197
0.00146718
0.00225523
0.00344063
0.00445391
0.00574404
0.00673916
0.00784602
0.00859446
0.00927607
0.00960916
0.00971696
0.0095596
0.0090683
0.00845432
0.00746791
0.00653394
0.00526633
0.00422525
0.00295952
0.00205903
0.00109312
0.000567701
0.000157682
0.000183627
0.000495477
0.00115783
0.00223743
0.00351508
0.00528142
0.00705256
0.00931496
0.0113808
0.0138749
0.0159956
0.0184308
0.0204059
0.0225061
0.0243854
0.0264198
0.0284101
0.0303734
0.0322621
0.0334064
0.0343959
0.0337469
0.0329857
0.0301186
0.0273495
0.022885
0.0187076
0.0139487
0.00961137
0.00601559
0.00292705
0.00158789
0.000354465
0.000733993
0.000698621
0.00101628
0.00110059
0.00167828
0.00153529
0.00119708
0.000938781
0.000424653
0.000956665
0.00183748
0.0040006
0.00691569
0.0104569
0.0146251
0.0184953
0.0226751
0.0257556
0.0287742
0.0303159
0.0314575
0.0313794
0.0308158
0.0296563
0.0281715
0.026603
0.024875
0.0231673
0.0212488
0.0193113
0.0170387
0.0148928
0.0124938
0.0103468
0.0080922
0.00618908
0.00433843
0.00289527
0.00165418
0.000821081
0.000303994
0.000136406
0.000342978
0.000788451
0.00159967
0.00250425
0.00370088
0.00483528
0.00613667
0.00723844
0.00835452
0.00917792
0.00986505
0.010229
0.0103375
0.0101614
0.009666
0.00898644
0.00799169
0.00695595
0.00567732
0.00451521
0.00323786
0.00221756
0.00124161
0.000618191
0.000201725
0.000168669
0.000479053
0.00113243
0.00221608
0.0035379
0.00531346
0.00717683
0.00945245
0.0116465
0.0141561
0.0164242
0.0188743
0.0209917
0.0231269
0.0250812
0.0271326
0.0290595
0.0310205
0.0326481
0.0337597
0.0343122
0.0335951
0.0323582
0.0294255
0.0263323
0.0218375
0.0176208
0.0128603
0.00877633
0.00523991
0.00256849
0.00128718
0.000455098
0.000832763
0.000985315
0.0013013
0.0014217
0.00203593
0.00186098
0.0015247
0.00109269
0.000581603
0.000732682
0.00160744
0.00331189
0.00620924
0.0094397
0.0135838
0.0174384
0.0215949
0.0249665
0.0279687
0.0299898
0.031125
0.0315196
0.0309579
0.0301051
0.028625
0.0271476
0.0254225
0.023645
0.0217275
0.0196533
0.0173818
0.0150936
0.0126957
0.0104256
0.00817206
0.00618159
0.00433182
0.00284933
0.00160883
0.000790331
0.000273489
0.000172681
0.000379155
0.000933995
0.00174483
0.00278501
0.00398108
0.00525646
0.00655723
0.00778313
0.00889869
0.00980934
0.0104961
0.0108959
0.0110045
0.0108065
0.0103113
0.00955546
0.00856118
0.00740698
0.00612895
0.00482599
0.00354924
0.0023895
0.00141401
0.000676526
0.000260257
0.000158546
0.000468783
0.00111174
0.00219488
0.00356813
0.00534285
0.00731362
0.00958816
0.0119315
0.0144398
0.0168795
0.0193285
0.0216115
0.0237456
0.025796
0.0278436
0.0296972
0.0316514
0.0329643
0.0340712
0.0340978
0.0333849
0.0315733
0.0286566
0.0251689
0.0206992
0.016431
0.0116981
0.00791887
0.00440399
0.00223503
0.000962465
0.000563767
0.000939418
0.0012949
0.00160907
0.00176845
0.00242214
0.00221267
0.00187847
0.00125888
0.000751083
0.000490815
0.00135904
0.0025682
0.00544639
0.00834131
0.0124594
0.0162972
0.0204284
0.0241144
0.0270989
0.0296376
0.0307661
0.0316709
0.0311115
0.0305896
0.0291148
0.0277356
0.0260137
0.0241609
0.0222445
0.0200226
0.0177523
0.0153103
0.0129137
0.0105107
0.0082583
0.00617351
0.00432468
0.00279972
0.00155986
0.000757126
0.000240549
0.000211852
0.000418221
0.00109116
0.00190158
0.00308818
0.00428364
0.00571126
0.00701137
0.00837132
0.0094863
0.0104912
0.0111776
0.0116162
0.0117246
0.0115032
0.0110082
0.0101699
0.00917613
0.00789402
0.00661665
0.00516157
0.00388548
0.00257517
0.00160018
0.000739518
0.000323462
0.000147615
0.000457693
0.0010894
0.00217198
0.00360078
0.00537459
0.00746132
0.0097347
0.0122392
0.0147463
0.0173713
0.019819
0.0222808
0.0244138
0.0265677
0.0286113
0.0303858
0.0323327
0.0333057
0.0344076
0.0338664
0.0331579
0.0307257
0.0278263
0.0239127
0.0194701
0.0151461
0.010443
0.00699294
0.00350132
0.00187496
0.000611823
0.000681111
0.00105459
0.0016292
0.00194142
0.00214289
0.00288044
0.00266023
0.00232101
0.00166787
0.00112083
0.000713409
0.00129637
0.00229975
0.00472691
0.00747067
0.0112122
0.0150256
0.018992
0.0227892
0.0258919
0.0286286
0.0301074
0.0312145
0.0310483
0.0306625
0.0294413
0.0281027
0.0264215
0.0245355
0.0225413
0.0202626
0.01794
0.015439
0.0130072
0.0105533
0.00828604
0.00616518
0.00432486
0.00278386
0.00157593
0.000779634
0.000315561
0.000315012
0.000588987
0.00130777
0.00219354
0.00343685
0.004707
0.00619352
0.00755926
0.00897104
0.0101351
0.0111764
0.0118896
0.0123431
0.0124529
0.0122223
0.0117029
0.0108328
0.00979186
0.00846029
0.0071189
0.00560499
0.00425613
0.00288753
0.00184038
0.000931956
0.000453786
0.000249073
0.000515242
0.00114234
0.00220508
0.00365504
0.00543574
0.00756699
0.00987312
0.0124396
0.015001
0.0176974
0.0202178
0.0227486
0.0249808
0.0271808
0.0291963
0.0309379
0.032613
0.0334445
0.0340912
0.0333227
0.0321695
0.0294971
0.026397
0.0223281
0.0180191
0.0136923
0.00939128
0.00609254
0.0031138
0.00171467
0.0007915
0.00103083
0.00146108
0.00207744
0.00239075
0.00260547
0.00344648
0.00322701
0.0028797
0.0022335
0.00144047
0.00104314
0.00112957
0.00213018
0.00387485
0.00659703
0.00978931
0.0135691
0.0173872
0.0211485
0.0245379
0.0272467
0.0293138
0.0304071
0.0308671
0.0304795
0.0296559
0.0283197
0.02671
0.0248255
0.0227352
0.0204579
0.0180226
0.0155231
0.0130028
0.0105503
0.00823053
0.00611094
0.00426359
0.00272352
0.0015582
0.000762382
0.000388102
0.000387553
0.000789535
0.00150789
0.00254535
0.00378792
0.00521507
0.00670071
0.00820894
0.00961987
0.0108933
0.0119339
0.0127086
0.0131618
0.0132765
0.013046
0.012474
0.0116044
0.0104603
0.00912951
0.00764874
0.00613573
0.00463087
0.00326309
0.00206535
0.00115746
0.000555334
0.000350743
0.000536796
0.00116352
0.00220073
0.00364982
0.00546238
0.00759236
0.00998245
0.0125474
0.0152326
0.0179274
0.0205975
0.0231267
0.0254954
0.0276935
0.0296624
0.0313996
0.0326511
0.0334816
0.0334077
0.0326507
0.0307632
0.0281193
0.0245925
0.0205632
0.0163271
0.0120394
0.00830661
0.00503477
0.00282103
0.00142775
0.00107838
0.00130827
0.00202525
0.00263461
0.00296837
0.00318234
0.00417806
0.0039599
0.00357626
0.00291495
0.00159074
0.00118388
0.000406367
0.00139872
0.00246824
0.00515265
0.00806823
0.0118069
0.0158164
0.0195427
0.0235283
0.026217
0.0289994
0.0300875
0.0310774
0.0306926
0.0301071
0.0287748
0.0271653
0.0252826
0.0230474
0.0207715
0.0181413
0.0156433
0.0129394
0.0104885
0.00802862
0.00591046
0.00399087
0.00245193
0.00129838
0.000503288
0.000229439
0.000229168
0.000811461
0.00152967
0.00280532
0.00404742
0.00573805
0.00722304
0.00898152
0.0103918
0.0118639
0.0129041
0.0137945
0.0142475
0.0143757
0.0141454
0.0134816
0.0126123
0.0112851
0.00995492
0.00822836
0.00671602
0.00494184
0.00357461
0.00212668
0.00121908
0.000424934
0.00022021
0.000301342
0.000927458
0.00196101
0.00340907
0.00531702
0.00744561
0.0100128
0.0125762
0.0154915
0.0181847
0.0210967
0.0236245
0.0261698
0.0283656
0.030355
0.0320864
0.0331086
0.033933
0.0332878
0.0325325
0.0298149
0.0271893
0.0229073
0.018915
0.0143568
0.010115
0.00660875
0.00338118
0.00188535
0.000504095
0.00112324
0.00136591
0.00269784
0.00332581
0.00371105
0.00392385
0.00495399
0.00474378
0.00436474
0.00359554
0.00228554
0.00146307
0.000692733
0.000987418
0.00202633
0.00399212
0.00687346
0.0101268
0.0140988
0.0177472
0.0217077
0.0247268
0.0275117
0.0291502
0.0301503
0.030261
0.0296806
0.0286063
0.0269825
0.0251362
0.0228701
0.0205485
0.0179201
0.0153847
0.0126827
0.0102254
0.00776729
0.00568191
0.00376367
0.00230044
0.00114769
0.000469886
0.000196228
0.000347834
0.000929721
0.0018222
0.00309697
0.00451951
0.00620896
0.00786215
0.0096194
0.0111674
0.0126385
0.0137702
0.01466
0.0151477
0.0152758
0.0150188
0.0143555
0.0134014
0.0120751
0.0106119
0.00888651
0.00720867
0.00543572
0.00388995
0.00244304
0.00136425
0.000570657
0.000220666
0.000301742
0.000822805
0.00185564
0.0032471
0.00515372
0.00727554
0.00984092
0.0124421
0.0153555
0.0181203
0.0210304
0.0236363
0.0262145
0.0283916
0.0303965
0.0318524
0.0328686
0.0331236
0.0324649
0.0310332
0.0283078
0.0252162
0.0209583
0.0169564
0.0124396
0.00867775
0.00521087
0.00276813
0.001309
0.000720231
0.00133408
0.00206256
0.00338028
0.00414343
0.00452391
0.00473248
0.00579188
0.00559025
0.00521471
0.00433047
0.00303582
0.00176455
0.00100196
0.000543278
0.00157056
0.00274167
0.00559297
0.00831255
0.0122439
0.0158083
0.0197276
0.0231116
0.0258651
0.0281075
0.0290906
0.0297454
0.0291596
0.0283706
0.026747
0.0249431
0.0226787
0.0203077
0.0176813
0.0151054
0.0124055
0.00994139
0.00748509
0.00543512
0.00351832
0.00213686
0.000984979
0.000433818
0.000160366
0.000475975
0.00105742
0.00213809
0.0034119
0.00502929
0.00671747
0.00855228
0.0103082
0.0120049
0.0134749
0.0147055
0.0155946
0.0161197
0.0162477
0.015962
0.0152992
0.0142535
0.0129282
0.0113213
0.00959721
0.00774065
0.00596903
0.00423048
0.00278465
0.00152101
0.000728016
0.000221159
0.000302173
0.000709796
0.00174185
0.0030722
0.00497739
0.0070919
0.00965535
0.0122974
0.0152085
0.0180509
0.0209587
0.0236491
0.0262253
0.0283801
0.0303837
0.0315351
0.0325545
0.032184
0.0315404
0.0293661
0.0266727
0.023067
0.0188538
0.0148396
0.0103693
0.00713502
0.00370436
0.00212946
0.000686628
0.000953623
0.00156174
0.00281483
0.0041172
0.00502514
0.00540168
0.00560568
0.00668861
0.00648926
0.00604777
0.00517132
0.00399012
0.00266425
0.00169809
0.00110002
0.0014298
0.00243189
0.00440614
0.00699278
0.010181
0.013692
0.017243
0.0206602
0.0235415
0.0258717
0.02733
0.0280761
0.0279746
0.0272386
0.0258828
0.02409
0.0219337
0.0195549
0.0170512
0.0144692
0.011918
0.00945432
0.00716888
0.00512707
0.00338938
0.00202453
0.00104557
0.000519073
0.000399515
0.000746371
0.00145343
0.00256947
0.00393618
0.00558985
0.00733885
0.00920727
0.0109968
0.0127208
0.0142044
0.0154531
0.0163431
0.016875
0.0169967
0.0167057
0.0160313
0.0149687
0.0136246
0.0119912
0.010236
0.00834635
0.0065244
0.00475003
0.00322854
0.00193027
0.00103313
0.00049652
0.000446379
0.00083198
0.00171277
0.0030305
0.00477584
0.00688754
0.00929686
0.011945
0.0147222
0.0175775
0.0203779
0.0230826
0.0255684
0.0277165
0.0294328
0.0305261
0.0309656
0.0304859
0.0292168
0.0269278
0.0239696
0.0203045
0.0164066
0.0124321
0.00875072
0.00565372
0.00321045
0.00182327
0.00119305
0.00162128
0.00249217
0.00381292
0.00500731
0.00590921
0.00635798
0.00656029
0.00785216
0.00765428
0.00744661
0.00657767
0.00501581
0.00371405
0.0018615
0.00126751
0.000539137
0.0015164
0.00252403
0.00506471
0.00770007
0.0111551
0.0147543
0.0181199
0.0215344
0.0238292
0.0259551
0.0266835
0.0270615
0.0263197
0.0251249
0.0233327
0.0211749
0.0187981
0.0163018
0.0137221
0.0112177
0.00875617
0.00655801
0.004518
0.00291284
0.00154919
0.000748366
0.000222332
0.00032111
0.000667661
0.0016216
0.00273666
0.00436139
0.00601361
0.00801024
0.00987703
0.0118807
0.0136032
0.0152458
0.0164935
0.0174705
0.0180019
0.0181289
0.0178382
0.0170866
0.016025
0.0145293
0.0128973
0.0109322
0.00904421
0.00697579
0.00520298
0.00342304
0.00212591
0.000982393
0.000446257
0.000182356
0.000567618
0.00128183
0.00259841
0.00423162
0.00634146
0.0086928
0.0113386
0.0141051
0.0169579
0.0197886
0.0224909
0.0250047
0.0271516
0.0287012
0.0297986
0.0296922
0.0292286
0.027152
0.0248988
0.021231
0.0176216
0.0135398
0.00962848
0.00646769
0.00342501
0.00202277
0.00066751
0.00122686
0.00165467
0.0035432
0.00483877
0.00649028
0.00738478
0.00759178
0.00779254
0.00896289
0.00883599
0.0086337
0.00783734
0.00629955
0.00478318
0.00290549
0.00168267
0.000870657
0.000902597
0.00183093
0.00339282
0.00595819
0.00870732
0.012262
0.0153962
0.0188126
0.0213295
0.0234815
0.0246422
0.0250415
0.0246691
0.0234657
0.0219052
0.0197196
0.0175463
0.0150511
0.0127033
0.0102024
0.00799702
0.00580443
0.00402692
0.00242968
0.00131715
0.000526614
0.000225049
0.000336198
0.000869531
0.00183731