/*--------------------------------*- C++ -*----------------------------------*\
| =========                 |                                                 |
| \\      /  F ield         | OpenFOAM: The Open Source CFD Toolbox           |
|  \\    /   O peration     | Version:  v2106                                 |
|   \\  /    A nd           | Website:  www.openfoam.com                      |
|    \\/     M anipulation  |                                                 |
\*---------------------------------------------------------------------------*/
FoamFile
{
    version     2.0;
    format      ascii;
    arch        "LSB;label=32;scalar=64";
    class       volScalarField;
    location    "0";
    object      expGpCoeffs41;
}
// * * * * * * * * * * * * * * * * * * * * * * * * * * * * * * * * * * * * * //

dimensions      [0 0 0 0 0 0 0];

internalField   nonuniform List<scalar> 
8000
(
8.19214e-05
9.16781e-05
0.000106965
0.00012574
0.000137312
0.000139753
0.000127144
0.00010139
7.24768e-05
4.17537e-05
1.99028e-05
7.15412e-06
-5.57105e-06
-1.9826e-05
-5.47667e-05
-0.000111493
-0.000195055
-0.000305435
-0.000432069
-0.000574766
-0.000728472
-0.000892384
-0.00107408
-0.00127244
-0.0014949
-0.00174291
-0.00201876
-0.00232251
-0.0026549
-0.00301583
-0.00340409
-0.00381938
-0.00425799
-0.00471937
-0.00519697
-0.00568997
-0.00618898
-0.00669295
-0.0071901
-0.00767923
-0.00814712
-0.00859248
-0.00900196
-0.00937439
-0.0096978
-0.00997118
-0.0101855
-0.01034
-0.0104297
-0.0104543
-0.0104135
-0.0103074
-0.0101403
-0.0099128
-0.00963323
-0.00930249
-0.0089318
-0.0085223
-0.00808668
-0.00762614
-0.00715339
-0.00666961
-0.00618629
-0.00570446
-0.00523352
-0.00477428
-0.00433358
-0.00391203
-0.00351387
-0.00313946
-0.00279072
-0.00246781
-0.00217077
-0.00189963
-0.00165332
-0.00143179
-0.00123405
-0.00105889
-0.000900708
-0.000760405
-0.000628427
-0.00050537
-0.000390193
-0.000282945
-0.000192361
-0.00011845
-6.50913e-05
-3.20795e-05
-1.2175e-05
-4.56167e-06
-6.47349e-07
-1.93703e-08
3.21674e-07
3.75687e-07
3.21447e-07
1.80114e-07
5.08538e-08
-7.48416e-08
-1.80893e-07
-2.5066e-07
8.11357e-05
9.08904e-05
0.000107017
0.000125793
0.000138545
0.000141023
0.000128169
0.000102439
7.19006e-05
4.11471e-05
1.90953e-05
6.31978e-06
-4.61797e-06
-1.88525e-05
-5.22853e-05
-0.000108967
-0.000193156
-0.000303515
-0.000431274
-0.00057396
-0.000727491
-0.00089138
-0.00107227
-0.0012706
-0.00149273
-0.00174071
-0.00201646
-0.00232018
-0.00265263
-0.00301351
-0.00340203
-0.00381727
-0.00425639
-0.00471771
-0.00519608
-0.00568902
-0.00618904
-0.00669295
-0.0071913
-0.00768036
-0.00814951
-0.00859482
-0.0090055
-0.00937788
-0.00970229
-0.00997564
-0.0101906
-0.0103451
-0.0104351
-0.0104597
-0.0104187
-0.0103126
-0.0101449
-0.00991742
-0.00963693
-0.00930623
-0.00893441
-0.00852496
-0.00808814
-0.00762766
-0.00715375
-0.00667003
-0.00618572
-0.00570394
-0.00523222
-0.00477303
-0.00433179
-0.00391029
-0.00351181
-0.00313745
-0.00278858
-0.00246571
-0.0021687
-0.00189759
-0.00165136
-0.00142986
-0.00123224
-0.00105711
-0.000899651
-0.00075937
-0.00062801
-0.000504958
-0.000389235
-0.000281991
-0.00019052
-0.000116633
-6.3543e-05
-3.05607e-05
-1.16283e-05
-4.02745e-06
-6.1843e-07
8.91603e-09
3.40124e-07
3.93559e-07
3.18938e-07
1.77637e-07
5.19295e-08
-7.37771e-08
-1.86526e-07
-2.56278e-07
8.02873e-05
9.00397e-05
0.000107074
0.000125851
0.000139877
0.000142394
0.000129277
0.000103572
7.12783e-05
4.04919e-05
1.82235e-05
5.41882e-06
-3.58879e-06
-1.78012e-05
-4.96058e-05
-0.00010624
-0.000191105
-0.000301441
-0.000430415
-0.000573091
-0.000726432
-0.000890296
-0.00107031
-0.00126861
-0.00149039
-0.00173833
-0.00201399
-0.00231766
-0.00265017
-0.003011
-0.00339981
-0.00381499
-0.00425465
-0.00471592
-0.00519512
-0.00568799
-0.00618911
-0.00669295
-0.00719259
-0.00768159
-0.0081521
-0.00859734
-0.00900933
-0.00938165
-0.00970713
-0.00998045
-0.0101961
-0.0103506
-0.0104409
-0.0104655
-0.0104243
-0.0103182
-0.0101499
-0.00992242
-0.00964092
-0.00931027
-0.00893723
-0.00852784
-0.00808971
-0.00762929
-0.00715414
-0.00667048
-0.00618509
-0.00570338
-0.00523081
-0.00477169
-0.00432985
-0.00390841
-0.00350959
-0.00313527
-0.00278627
-0.00246345
-0.00216646
-0.00189538
-0.00164924
-0.00142778
-0.00123029
-0.00105518
-0.00089851
-0.000758251
-0.000627559
-0.000504513
-0.0003882
-0.000280961
-0.000188532
-0.000114672
-6.18711e-05
-2.89207e-05
-1.1038e-05
-3.45058e-06
-5.87202e-07
3.94608e-08
3.60047e-07
4.12857e-07
3.16228e-07
1.74962e-07
5.30912e-08
-7.26275e-08
-1.92609e-07
-2.62345e-07
7.93712e-05
8.91211e-05
0.000107136
0.000125913
0.000141314
0.000143874
0.000130473
0.000104795
7.06064e-05
3.97845e-05
1.7282e-05
4.44593e-06
-2.47744e-06
-1.6666e-05
-4.67124e-05
-0.000103295
-0.000188891
-0.000299202
-0.000429488
-0.000572151
-0.000725289
-0.000889126
-0.0010682
-0.00126647
-0.00148786
-0.00173576
-0.00201131
-0.00231494
-0.00264752
-0.0030083
-0.00339741
-0.00381252
-0.00425279
-0.00471398
-0.00519409
-0.00568688
-0.00618919
-0.00669295
-0.00719398
-0.00768291
-0.00815489
-0.00860007
-0.00901346
-0.00938572
-0.00971237
-0.00998564
-0.0102021
-0.0103566
-0.0104471
-0.0104717
-0.0104303
-0.0103242
-0.0101552
-0.00992781
-0.00964523
-0.00931463
-0.00894027
-0.00853094
-0.0080914
-0.00763105
-0.00715456
-0.00667098
-0.00618442
-0.00570278
-0.00522929
-0.00477024
-0.00432776
-0.00390638
-0.00350718
-0.00313293
-0.00278377
-0.002461
-0.00216404
-0.00189301
-0.00164696
-0.00142552
-0.00122817
-0.0010531
-0.000897277
-0.000757043
-0.000627072
-0.000504032
-0.000387083
-0.000279848
-0.000186385
-0.000112554
-6.00657e-05
-2.71498e-05
-1.04006e-05
-2.82765e-06
-5.53481e-07
7.24442e-08
3.8156e-07
4.33697e-07
3.13302e-07
1.72074e-07
5.43455e-08
-7.13862e-08
-1.99177e-07
-2.68896e-07
7.83819e-05
8.81292e-05
0.000107202
0.000125909
0.000142867
0.000145473
0.000131765
0.000106116
6.98808e-05
3.90207e-05
1.62653e-05
3.39536e-06
-1.27736e-06
-1.54402e-05
-4.35879e-05
-0.000100115
-0.0001865
-0.000296784
-0.000428487
-0.000571137
-0.000724054
-0.000887862
-0.00106592
-0.00126415
-0.00148513
-0.00173299
-0.00200843
-0.00231201
-0.00264465
-0.00300537
-0.00339481
-0.00380986
-0.00425077
-0.00471189
-0.00519297
-0.00568569
-0.00618927
-0.00669296
-0.00719548
-0.00768433
-0.00815791
-0.00860301
-0.00901791
-0.00939012
-0.00971802
-0.00999125
-0.0102086
-0.010363
-0.0104539
-0.0104785
-0.0104368
-0.0103308
-0.010161
-0.00993363
-0.00964989
-0.00931934
-0.00894355
-0.00853429
-0.00809323
-0.00763296
-0.00715501
-0.00667151
-0.00618369
-0.00570213
-0.00522765
-0.00476867
-0.0043255
-0.00390419
-0.00350459
-0.00313039
-0.00278108
-0.00245836
-0.00216143
-0.00189044
-0.00164449
-0.00142309
-0.00122589
-0.00105085
-0.000895947
-0.000755739
-0.000626546
-0.000503513
-0.000385877
-0.000278647
-0.000184067
-0.000110267
-5.81161e-05
-2.52375e-05
-9.71226e-06
-2.15499e-06
-5.17067e-07
1.08061e-07
4.04792e-07
4.562e-07
3.10142e-07
1.68955e-07
5.30994e-08
-7.00457e-08
-2.0627e-07
-2.7597e-07
7.74396e-05
8.71692e-05
0.000106586
0.000125471
0.000143761
0.000146573
0.000133098
0.000107763
6.91474e-05
3.83671e-05
1.52918e-05
2.43975e-06
-8.41229e-09
-1.41818e-05
-4.02618e-05
-9.66891e-05
-0.000183918
-0.000294173
-0.000427406
-0.000570042
-0.00072272
-0.000886498
-0.00106346
-0.00126165
-0.00148161
-0.00172925
-0.00200457
-0.00230789
-0.00264059
-0.00300104
-0.00339079
-0.00380555
-0.00424707
-0.00470789
-0.00518991
-0.00568233
-0.00618714
-0.00669052
-0.00719449
-0.00768303
-0.00815814
-0.00860293
-0.00901929
-0.0093912
-0.00972031
-0.00999326
-0.0102114
-0.0103656
-0.0104568
-0.0104812
-0.0104394
-0.0103332
-0.0101627
-0.0099354
-0.00965053
-0.00932014
-0.00894297
-0.00853396
-0.00809144
-0.00763151
-0.00715216
-0.00666906
-0.00618003
-0.00569892
-0.00522349
-0.00476497
-0.00432114
-0.00390028
-0.00350029
-0.00312651
-0.00277705
-0.00245469
-0.00215779
-0.00188712
-0.00164127
-0.00142011
-0.00122343
-0.00104842
-0.00089451
-0.000754331
-0.000625978
-0.000502953
-0.000384575
-0.000277349
-0.000181525
-0.000107808
-5.60425e-05
-2.32678e-05
-8.99805e-06
-1.45479e-06
-4.77074e-07
1.46404e-07
4.31394e-07
4.78251e-07
3.12489e-07
1.60272e-07
3.56947e-08
-1.26727e-07
-2.35074e-07
-3.17272e-07
7.66903e-05
8.6357e-05
0.000105767
0.000124998
0.000143281
0.00014749
0.000134036
0.000110151
7.15902e-05
4.05919e-05
1.75704e-05
3.31366e-06
8.87931e-07
-1.33266e-05
-3.93958e-05
-9.33634e-05
-0.000180569
-0.000288194
-0.000421469
-0.000563477
-0.000715811
-0.000879751
-0.00105595
-0.0012533
-0.00147252
-0.00171829
-0.00199355
-0.00229467
-0.00262732
-0.00298548
-0.00337516
-0.00378762
-0.00422906
-0.00468756
-0.00516949
-0.00565958
-0.0061643
-0.00666532
-0.0071692
-0.00765532
-0.00813035
-0.00857267
-0.00898895
-0.0093584
-0.00968745
-0.00995803
-0.0101761
-0.0103282
-0.0104194
-0.0104423
-0.0104004
-0.0102934
-0.0101229
-0.00989553
-0.00961072
-0.00928127
-0.00890417
-0.00849706
-0.00805463
-0.00759746
-0.0071182
-0.00663852
-0.00614958
-0.0056723
-0.00519696
-0.00474243
-0.00429869
-0.00388174
-0.00348182
-0.00311169
-0.0027623
-0.0024432
-0.00214636
-0.00187847
-0.00163267
-0.00141363
-0.0012174
-0.00104309
-0.000889705
-0.000748903
-0.000620935
-0.000497379
-0.000379052
-0.000273029
-0.000177146
-0.00010578
-5.40439e-05
-2.27999e-05
-8.53611e-06
-1.39901e-06
-4.22395e-07
1.80235e-07
4.64317e-07
4.83537e-07
3.1752e-07
1.41095e-07
1.69004e-08
-2.0095e-07
-3.08885e-07
-4.33646e-07
7.58813e-05
8.548e-05
0.000104882
0.000124488
0.000142764
0.000148479
0.000135049
0.00011273
7.42279e-05
4.29943e-05
2.00308e-05
4.25735e-06
1.85584e-06
-1.24031e-05
-3.84606e-05
-8.97723e-05
-0.000176927
-0.000281336
-0.000414509
-0.000555094
-0.000707324
-0.000871033
-0.00104716
-0.00124353
-0.00146271
-0.00170644
-0.00198165
-0.0022804
-0.00261298
-0.00296869
-0.00335829
-0.00376825
-0.0042096
-0.00466561
-0.00514744
-0.00563502
-0.00613963
-0.00663811
-0.00714188
-0.00762541
-0.00810034
-0.00854
-0.0089562
-0.00932297
-0.00965196
-0.00991999
-0.010138
-0.0102879
-0.010379
-0.0104002
-0.0103583
-0.0102503
-0.0100799
-0.00985247
-0.00956772
-0.00923929
-0.00886227
-0.00845722
-0.00801488
-0.00756069
-0.00708153
-0.00660554
-0.0061167
-0.00564356
-0.00516831
-0.00471809
-0.00427444
-0.00386171
-0.00346188
-0.00309569
-0.00274637
-0.00243079
-0.00213401
-0.00186914
-0.00162339
-0.00140663
-0.00121043
-0.00103697
-0.000883632
-0.000742309
-0.000614422
-0.00049079
-0.00037256
-0.000268226
-0.000172417
-0.000103591
-5.18856e-05
-2.22947e-05
-8.03729e-06
-1.33877e-06
-3.6335e-07
2.16766e-07
4.99868e-07
4.89245e-07
3.22952e-07
1.20387e-07
-3.3944e-09
-2.81099e-07
-3.8859e-07
-5.59312e-07
7.50076e-05
8.45329e-05
0.000103926
0.000123937
0.000142204
0.000149548
0.000136143
0.000115515
7.70763e-05
4.55885e-05
2.26878e-05
5.27639e-06
2.90103e-06
-1.14059e-05
-3.74508e-05
-8.58944e-05
-0.000172993
-0.00027393
-0.000406993
-0.000546041
-0.00069816
-0.000861619
-0.00103767
-0.00123298
-0.00145211
-0.00169366
-0.0019688
-0.00226499
-0.00259749
-0.00295055
-0.00334007
-0.00374734
-0.00418859
-0.0046419
-0.00512362
-0.00560849
-0.006113
-0.00660872
-0.00711239
-0.0075931
-0.00806793
-0.00850472
-0.00892082
-0.00928472
-0.00961363
-0.00987891
-0.0100969
-0.0102443
-0.0103354
-0.0103547
-0.0103128
-0.0102038
-0.0100334
-0.00980598
-0.00952129
-0.00919396
-0.00881702
-0.0084142
-0.00797195
-0.00752098
-0.00704193
-0.00656992
-0.00608119
-0.00561252
-0.00513738
-0.00469181
-0.00424825
-0.00384009
-0.00344035
-0.00307841
-0.00272917
-0.00241739
-0.00212067
-0.00185906
-0.00161337
-0.00139907
-0.00120292
-0.00103035
-0.000877075
-0.00073519
-0.000607389
-0.000483674
-0.000365549
-0.00026304
-0.000167311
-0.000101226
-4.95551e-05
-2.17491e-05
-7.49864e-06
-1.27373e-06
-2.9959e-07
2.56214e-07
5.38258e-07
4.95409e-07
3.28818e-07
9.80256e-08
-2.53096e-08
-3.67647e-07
-4.74658e-07
-6.9501e-07
7.40642e-05
8.35102e-05
0.000102894
0.000123341
0.000141601
0.000150701
0.000137324
0.000118523
8.01521e-05
4.83899e-05
2.55568e-05
6.37678e-06
4.02966e-06
-1.03291e-05
-3.63603e-05
-8.1707e-05
-0.000168746
-0.000265932
-0.000398878
-0.000536265
-0.000688265
-0.000851453
-0.00102742
-0.00122159
-0.00144067
-0.00167985
-0.00195493
-0.00224834
-0.00258077
-0.00293097
-0.00332039
-0.00372476
-0.00416591
-0.0046163
-0.00509791
-0.00557985
-0.00608424
-0.00657699
-0.00708054
-0.00755822
-0.00803293
-0.00846662
-0.00888263
-0.00924342
-0.00957225
-0.00983454
-0.0100525
-0.0101973
-0.0102884
-0.0103056
-0.0102638
-0.0101536
-0.00998322
-0.00975578
-0.00947115
-0.00914501
-0.00876817
-0.00836775
-0.0079256
-0.00747811
-0.00699917
-0.00653147
-0.00604285
-0.005579
-0.00510397
-0.00466343
-0.00421997
-0.00381674
-0.00341709
-0.00305976
-0.00271059
-0.00240291
-0.00210627
-0.00184818
-0.00160254
-0.0013909
-0.0011948
-0.00102321
-0.000869995
-0.000727502
-0.000599795
-0.000475991
-0.000357978
-0.00025744
-0.000161797
-9.86732e-05
-4.70385e-05
-2.116e-05
-6.91699e-06
-1.20349e-06
-2.3074e-07
2.98812e-07
5.79713e-07
5.02065e-07
3.35152e-07
7.38787e-08
-4.89745e-08
-4.61106e-07
-5.67598e-07
-8.41544e-07
7.30455e-05
8.24059e-05
0.00010178
0.000122699
0.000140949
0.000151947
0.0001386
0.00012177
8.34735e-05
5.14149e-05
2.86549e-05
7.56504e-06
5.24841e-06
-9.16631e-06
-3.51828e-05
-7.71851e-05
-0.000164159
-0.000257297
-0.000390115
-0.000525708
-0.000677579
-0.000840475
-0.00101636
-0.00120929
-0.00142831
-0.00166494
-0.00193995
-0.00223037
-0.00256271
-0.00290982
-0.00329914
-0.00370038
-0.00414141
-0.00458865
-0.00507014
-0.00554892
-0.00605318
-0.00654273
-0.00704615
-0.00752055
-0.00799514
-0.00842548
-0.00884138
-0.00919881
-0.00952756
-0.00978664
-0.0100045
-0.0101465
-0.0102375
-0.0102526
-0.0102108
-0.0100994
-0.00992905
-0.00970156
-0.00941701
-0.00909216
-0.00871541
-0.00831758
-0.00787555
-0.00743181
-0.00695299
-0.00648994
-0.00600145
-0.00554281
-0.0050679
-0.00463278
-0.00418944
-0.00379153
-0.00339198
-0.00303961
-0.00269053
-0.00238729
-0.00209071
-0.00183643
-0.00159085
-0.00138208
-0.00118603
-0.00101549
-0.000862349
-0.0007192
-0.000591595
-0.000467694
-0.000349803
-0.000251393
-0.000155843
-9.59163e-05
-4.43209e-05
-2.05239e-05
-6.28889e-06
-1.12764e-06
-1.56393e-07
3.44811e-07
6.24478e-07
5.09252e-07
3.41992e-07
4.78039e-08
-7.45288e-08
-5.62026e-07
-6.67958e-07
-9.99776e-07
7.19454e-05
8.12134e-05
0.000100576
0.000122005
0.000140245
0.000153293
0.000139977
0.000125277
8.70601e-05
5.46814e-05
3.20004e-05
8.84816e-06
6.56447e-06
-7.91068e-06
-3.39113e-05
-7.23023e-05
-0.000159206
-0.000247971
-0.000380652
-0.000514309
-0.00066604
-0.000828622
-0.00100441
-0.00119601
-0.00141497
-0.00164884
-0.00192377
-0.00221097
-0.00254322
-0.00288698
-0.0032762
-0.00367405
-0.00411496
-0.0045588
-0.00504016
-0.00551552
-0.00601964
-0.00650573
-0.00700901
-0.00747987
-0.00795433
-0.00838106
-0.00879684
-0.00915065
-0.00947931
-0.00973491
-0.00995274
-0.0100916
-0.0101827
-0.0101954
-0.0101535
-0.0100408
-0.00987054
-0.00964302
-0.00935855
-0.00903508
-0.00865844
-0.00826341
-0.0078215
-0.00738181
-0.00690313
-0.00644509
-0.00595674
-0.00550373
-0.00502895
-0.00459969
-0.00415647
-0.0037643
-0.00336487
-0.00301785
-0.00266887
-0.00237041
-0.00207392
-0.00182373
-0.00157823
-0.00137256
-0.00117657
-0.00100716
-0.000854093
-0.000710235
-0.00058274
-0.000458734
-0.000340975
-0.000244864
-0.000149413
-9.29392e-05
-4.13864e-05
-1.98369e-05
-5.61065e-06
-1.04574e-06
-7.611e-08
3.94483e-07
6.72817e-07
5.17014e-07
3.49378e-07
1.96472e-08
-1.02123e-07
-6.71003e-07
-7.76331e-07
-1.17064e-06
7.1027e-05
8.02382e-05
9.84687e-05
0.000120174
0.000138491
0.000152925
0.00014211
0.000128764
9.25453e-05
5.98952e-05
3.67393e-05
1.20408e-05
7.65371e-06
-6.83025e-06
-3.26933e-05
-6.84019e-05
-0.000152544
-0.000237602
-0.000368506
-0.000499923
-0.000651763
-0.000813664
-0.000989175
-0.00117967
-0.00139618
-0.00162811
-0.00190076
-0.00218569
-0.00251529
-0.0028567
-0.00324302
-0.00363848
-0.00407626
-0.00451771
-0.00499569
-0.00546864
-0.00596916
-0.0064528
-0.00695229
-0.00742065
-0.0078912
-0.00831538
-0.00872728
-0.00907853
-0.00940356
-0.00965673
-0.00987143
-0.0100082
-0.0100969
-0.010108
-0.0100649
-0.00995123
-0.00978096
-0.00955344
-0.00927032
-0.00894784
-0.00857383
-0.00818079
-0.00774262
-0.00730578
-0.00683165
-0.00637715
-0.00589383
-0.00544477
-0.00497517
-0.00455001
-0.00411182
-0.00372368
-0.00332888
-0.00298562
-0.00264073
-0.00234561
-0.00205259
-0.00180528
-0.00156254
-0.00135904
-0.00116524
-0.000996775
-0.000843638
-0.000699435
-0.000571024
-0.000447479
-0.000330053
-0.000236121
-0.000142756
-8.88746e-05
-3.91477e-05
-1.92281e-05
-5.25615e-06
-1.13724e-06
7.09317e-09
4.54821e-07
7.13221e-07
5.30293e-07
3.45508e-07
-2.34573e-10
-2.22696e-07
-8.17429e-07
-9.76946e-07
-1.40634e-06
7.03314e-05
7.95389e-05
9.61469e-05
0.00011782
0.000136163
0.00015054
0.000145221
0.000131965
0.000101927
6.95355e-05
4.40836e-05
1.95692e-05
8.22133e-06
-6.25869e-06
-3.17436e-05
-6.74518e-05
-0.000140705
-0.000225566
-0.000346316
-0.000477436
-0.00062711
-0.000788793
-0.000964413
-0.00115482
-0.00136741
-0.00159926
-0.00186517
-0.00215
-0.00247181
-0.00281311
-0.00319094
-0.00358627
-0.00401486
-0.00445616
-0.00492426
-0.00539705
-0.00588701
-0.0063705
-0.00685883
-0.00732704
-0.00778608
-0.00821012
-0.00861057
-0.00896171
-0.00927595
-0.00952904
-0.00973443
-0.00987112
-0.00995288
-0.00996394
-0.00991703
-0.00980343
-0.00963307
-0.00940562
-0.0091264
-0.00880402
-0.00843774
-0.00804482
-0.00761767
-0.00718097
-0.00672031
-0.00626596
-0.00579755
-0.00534864
-0.0048944
-0.00446938
-0.00404608
-0.00365807
-0.00327702
-0.00293387
-0.00260112
-0.0023061
-0.00202338
-0.00177614
-0.00154159
-0.00133817
-0.00114898
-0.000980596
-0.000826128
-0.000682086
-0.000551165
-0.000427883
-0.000314358
-0.00022069
-0.000136245
-8.24805e-05
-3.87372e-05
-1.88135e-05
-5.72674e-06
-1.59171e-06
8.86415e-08
5.34348e-07
7.34584e-07
5.50773e-07
3.28389e-07
-1.71078e-08
-3.84629e-07
-9.77176e-07
-1.2882e-06
-1.71711e-06
6.93269e-05
7.85309e-05
9.31058e-05
0.000114747
0.000134358
0.000148658
0.000148581
0.000135421
0.000112057
7.99454e-05
5.20143e-05
2.76987e-05
8.83428e-06
-5.6415e-06
-3.07181e-05
-6.64259e-05
-0.000127921
-0.000212568
-0.000322355
-0.000453154
-0.000600488
-0.000761936
-0.000937674
-0.00112798
-0.00133634
-0.00156811
-0.00182674
-0.00211147
-0.00242485
-0.00276604
-0.00313469
-0.00352988
-0.00394855
-0.0043897
-0.00484712
-0.00531975
-0.0057983
-0.00628162
-0.00675791
-0.00722596
-0.00767256
-0.00809646
-0.00848454
-0.00883555
-0.00913816
-0.00939116
-0.0095865
-0.00972314
-0.00979737
-0.00980843
-0.00975739
-0.00964383
-0.00947337
-0.00924601
-0.00897098
-0.00864872
-0.00829078
-0.007898
-0.00748275
-0.0070462
-0.00660008
-0.00614588
-0.00569359
-0.00524483
-0.00480718
-0.0043823
-0.0039751
-0.00358722
-0.00322101
-0.00287798
-0.00255834
-0.00226343
-0.00199183
-0.00174468
-0.00151898
-0.00131562
-0.00113143
-0.000963126
-0.000807219
-0.000663351
-0.000529722
-0.000406723
-0.000297409
-0.000204026
-0.000129215
-7.55758e-05
-3.82939e-05
-1.83659e-05
-6.23489e-06
-2.08246e-06
1.76701e-07
6.20225e-07
7.57653e-07
5.72888e-07
3.08144e-07
-3.71263e-08
-5.17054e-07
-1.10695e-06
-1.6361e-06
-2.06451e-06
6.41675e-05
7.33624e-05
8.885e-05
0.000110432
0.000136474
0.000150847
0.000160057
0.000147249
0.000123969
9.21905e-05
5.63902e-05
3.21697e-05
9.54257e-06
-4.92741e-06
-2.04289e-05
-5.59105e-05
-0.000102641
-0.00018681
-0.00028897
-0.000419305
-0.000566842
-0.000727993
-0.000902017
-0.00109221
-0.0012916
-0.00152329
-0.00177249
-0.00205712
-0.00236138
-0.00270243
-0.00306228
-0.00345733
-0.00386779
-0.00430876
-0.00475865
-0.00523111
-0.00570269
-0.00618582
-0.00665543
-0.0071233
-0.00756315
-0.00798689
-0.00836785
-0.00871873
-0.00901382
-0.00926673
-0.0094544
-0.00959099
-0.00965804
-0.00966909
-0.0096122
-0.00949868
-0.00932465
-0.00909736
-0.00882184
-0.0084997
-0.00814484
-0.00775221
-0.0073437
-0.00690732
-0.00647126
-0.00601724
-0.00557762
-0.00512903
-0.00470573
-0.00428101
-0.00388887
-0.00350114
-0.00314978
-0.00280688
-0.00250114
-0.00220633
-0.00194718
-0.00170012
-0.00148536
-0.00128208
-0.00110653
-0.000938315
-0.000782815
-0.000639168
-0.00050191
-0.000379289
-0.000271167
-0.000178258
-0.000112189
-5.89126e-05
-3.20874e-05
-1.22996e-05
-5.30478e-06
-1.17462e-06
4.70175e-07
9.0512e-07
8.68586e-07
6.80162e-07
2.75595e-07
-6.90366e-08
-5.80273e-07
-1.16929e-06
-2.20198e-06
-2.62961e-06
5.86299e-05
6.78117e-05
8.43392e-05
0.000105965
0.000138588
0.000152859
0.000172506
0.000160095
0.000136921
0.000105504
6.07968e-05
3.66735e-05
1.03103e-05
-4.15335e-06
-8.39526e-06
-4.36237e-05
-7.34923e-05
-0.00015714
-0.000251361
-0.000381192
-0.000529364
-0.000690195
-0.000862245
-0.00105231
-0.00124269
-0.00147428
-0.00171323
-0.00199774
-0.00229215
-0.00263306
-0.00298347
-0.00337836
-0.00378008
-0.00422088
-0.00466285
-0.00513511
-0.00559945
-0.00608239
-0.00654512
-0.0070128
-0.00744571
-0.00786927
-0.00824289
-0.00859363
-0.00888086
-0.00913367
-0.00931325
-0.00944978
-0.00950912
-0.00952017
-0.00945688
-0.00934341
-0.00916532
-0.00893813
-0.0086618
-0.00833979
-0.00798794
-0.00759547
-0.00719392
-0.00675771
-0.00633222
-0.00587838
-0.00545219
-0.00500378
-0.00459579
-0.00417125
-0.00379524
-0.00340767
-0.00307227
-0.00272951
-0.00243878
-0.00214409
-0.0018984
-0.00165144
-0.00144855
-0.00124535
-0.00107852
-0.00091041
-0.000755538
-0.000612131
-0.000470926
-0.000348714
-0.000241569
-0.000149177
-9.28701e-05
-3.99933e-05
-2.50322e-05
-5.40308e-06
-4.18915e-06
-8.49526e-08
8.04925e-07
1.23034e-06
9.89166e-07
7.96609e-07
2.37515e-07
-1.15251e-07
-7.84499e-07
-1.48909e-06
-2.82657e-06
-3.25651e-06
5.47936e-05
6.3305e-05
7.98015e-05
0.000101539
0.000134078
0.000153148
0.000173739
0.000168599
0.000146193
0.000118205
7.28623e-05
4.53271e-05
1.87328e-05
4.9754e-07
-2.53283e-06
-3.33484e-05
-6.06289e-05
-0.000132136
-0.000224778
-0.000342211
-0.000490181
-0.000640673
-0.000811775
-0.000988817
-0.00117639
-0.00138925
-0.0016273
-0.00188948
-0.002183
-0.00249851
-0.00284805
-0.00321476
-0.00361563
-0.00402599
-0.00446716
-0.00490742
-0.00537102
-0.00582137
-0.00628337
-0.00671906
-0.00715127
-0.00754484
-0.00791775
-0.00824213
-0.00852864
-0.0087603
-0.00893918
-0.00906135
-0.00912005
-0.00912473
-0.00906097
-0.00894979
-0.00877147
-0.00855538
-0.00827909
-0.00797639
-0.00762491
-0.00725867
-0.00685781
-0.00645307
-0.00602857
-0.00560941
-0.00518444
-0.00477197
-0.00436533
-0.00397617
-0.00360156
-0.00324731
-0.0029133
-0.00260079
-0.00231134
-0.00204319
-0.00179865
-0.00157427
-0.00137238
-0.00118737
-0.00102372
-0.00086701
-0.000713019
-0.000576448
-0.00043489
-0.000320451
-0.000213805
-0.00013162
-7.70672e-05
-3.26918e-05
-1.9262e-05
-3.50311e-06
-2.87955e-06
3.72403e-07
1.17433e-06
1.37221e-06
1.10242e-06
7.51464e-07
1.80742e-07
-6.2794e-07
-1.28657e-06
-2.82717e-06
-4.15695e-06
-4.99389e-06
5.0651e-05
5.84386e-05
7.49015e-05
9.67601e-05
0.000129209
0.000153461
0.000174092
0.000177751
0.000155606
0.000131747
8.67395e-05
5.50059e-05
2.86392e-05
5.80206e-06
2.89943e-06
-2.26147e-05
-4.96868e-05
-0.000106508
-0.000198755
-0.000300651
-0.000448159
-0.000584949
-0.000755746
-0.000916189
-0.00110367
-0.00129473
-0.00153267
-0.00176888
-0.00206227
-0.00234823
-0.0026976
-0.00303153
-0.00343222
-0.00380716
-0.00424812
-0.00465117
-0.00511454
-0.00552699
-0.00598878
-0.00638727
-0.00681926
-0.00717798
-0.00755071
-0.00784442
-0.0081308
-0.00833788
-0.00851668
-0.00862213
-0.0086808
-0.00867805
-0.00861432
-0.00850583
-0.00832759
-0.00812442
-0.00784826
-0.00756798
-0.00721667
-0.00688094
-0.00648027
-0.00611211
-0.00568782
-0.005309
-0.00488424
-0.00451356
-0.00410712
-0.00375909
-0.00338466
-0.00306918
-0.00273533
-0.002458
-0.00216869
-0.00193141
-0.00168699
-0.00148887
-0.00128708
-0.00112321
-0.000959646
-0.00081745
-0.00066373
-0.000536463
-0.000395348
-0.00029084
-0.000184646
-0.000114856
-6.0615e-05
-2.64606e-05
-1.31667e-05
-2.04271e-06
-1.45615e-06
7.82745e-07
1.57404e-06
1.4988e-06
1.22461e-06
6.8903e-07
1.19436e-07
-1.18156e-06
-1.82872e-06
-4.27209e-06
-5.59355e-06
-6.86998e-06
4.61776e-05
5.31836e-05
6.96103e-05
9.15991e-05
0.000123951
0.000153798
0.000174474
0.000187633
0.000165771
0.00014637
0.000101725
6.54574e-05
3.93366e-05
1.15301e-05
8.76541e-06
-1.10241e-05
-3.7871e-05
-7.8833e-05
-0.000170655
-0.000255772
-0.000402781
-0.000524776
-0.000695243
-0.000837762
-0.00102514
-0.00119267
-0.00143049
-0.00163866
-0.00193189
-0.00218594
-0.00253513
-0.00283368
-0.00323416
-0.00357086
-0.0040116
-0.00437446
-0.0048376
-0.00520911
-0.00567066
-0.00602898
-0.00646075
-0.00678183
-0.00715437
-0.00741497
-0.0077012
-0.00788174
-0.00806044
-0.00814784
-0.00820648
-0.00819571
-0.00813201
-0.00802642
-0.00784828
-0.00765905
-0.00738303
-0.00712697
-0.00677584
-0.00647305
-0.00607259
-0.00574393
-0.00531985
-0.00498461
-0.00456007
-0.00423452
-0.00382828
-0.00352467
-0.00315044
-0.00287683
-0.00254315
-0.00230382
-0.00201465
-0.00181071
-0.00156641
-0.00139666
-0.00119497
-0.00105394
-0.000890457
-0.000763933
-0.000610506
-0.000493286
-0.000352648
-0.000258865
-0.000153158
-9.67541e-05
-4.28492e-05
-1.97318e-05
-6.58482e-06
-4.65715e-07
8.09043e-08
1.22585e-06
2.00567e-06
1.6355e-06
1.35656e-06
6.21611e-07
5.32347e-08
-1.77939e-06
-2.41417e-06
-5.83237e-06
-7.14485e-06
-8.89585e-06
4.26974e-05
4.94425e-05
6.46077e-05
8.6485e-05
0.000116157
0.000147916
0.000170542
0.000187608
0.000175421
0.00015805
0.000121027
8.31499e-05
5.40371e-05
2.43618e-05
1.26575e-05
-4.72283e-06
-3.08232e-05
-6.509e-05
-0.000141968
-0.000219357
-0.000346347
-0.000460836
-0.00061246
-0.000746643
-0.00091256
-0.00107085
-0.00128197
-0.00147912
-0.00173953
-0.00198104
-0.00229197
-0.0025766
-0.00293384
-0.00325549
-0.00364897
-0.00399602
-0.00440944
-0.00476486
-0.00517639
-0.0055189
-0.00590297
-0.00620927
-0.00653934
-0.00678692
-0.00703878
-0.00720891
-0.00736387
-0.00744419
-0.00749155
-0.00747762
-0.00741595
-0.00731156
-0.00714857
-0.00696484
-0.00671589
-0.00646936
-0.00615509
-0.00586526
-0.00550877
-0.00519563
-0.00481973
-0.00450162
-0.00412664
-0.00381881
-0.0034611
-0.00317492
-0.00284624
-0.00258906
-0.00229663
-0.00207221
-0.00181925
-0.0016284
-0.00141499
-0.00125636
-0.0010797
-0.000947622
-0.000804401
-0.000685158
-0.000547402
-0.000435585
-0.000310568
-0.000222063
-0.000131138
-8.05611e-05
-3.50915e-05
-1.65697e-05
-4.30225e-06
-2.40112e-07
1.12695e-06
1.81616e-06
2.29254e-06
1.79636e-06
1.35175e-06
5.3961e-07
-4.38828e-07
-2.42824e-06
-4.38796e-06
-7.9999e-06
-9.77656e-06
-1.16787e-05
3.79196e-05
4.46558e-05
5.61876e-05
7.79748e-05
0.000106761
0.000138297
0.000167508
0.000184496
0.000188192
0.000171191
0.000144247
0.000106955
6.98774e-05
4.05654e-05
1.49583e-05
-2.38888e-06
-2.48409e-05
-5.89983e-05
-0.000108965
-0.000185891
-0.000276965
-0.000390892
-0.000507988
-0.000641957
-0.000770707
-0.000928901
-0.00109397
-0.00129101
-0.00149589
-0.00173726
-0.00198391
-0.00226837
-0.00255344
-0.0028749
-0.00318997
-0.00353681
-0.00386818
-0.00422338
-0.00455266
-0.00489497
-0.0052008
-0.00550692
-0.00576733
-0.00601476
-0.00621014
-0.00638018
-0.00649586
-0.00657614
-0.00660443
-0.00659051
-0.00653149
-0.00642717
-0.00628837
-0.00610476
-0.00589968
-0.0056533
-0.00539929
-0.00510963
-0.0048255
-0.00451254
-0.00421634
-0.00389843
-0.00360586
-0.00329822
-0.00302154
-0.00273553
-0.00248325
-0.00222623
-0.00200327
-0.00177899
-0.00158722
-0.00139648
-0.00123546
-0.00107693
-0.000943401
-0.000811404
-0.000702012
-0.000582971
-0.000473712
-0.000362477
-0.000265694
-0.000177797
-0.00011282
-6.25728e-05
-3.23209e-05
-1.38474e-05
-4.41535e-06
-3.45296e-07
1.9719e-06
2.63924e-06
2.57806e-06
2.07221e-06
1.20712e-06
3.97861e-07
-7.75072e-07
-2.75336e-06
-6.72078e-06
-1.03007e-05
-1.35068e-05
-1.54039e-05
2.92835e-05
3.59277e-05
4.4728e-05
6.60497e-05
9.58258e-05
0.000127289
0.000173286
0.000190292
0.000212953
0.000196678
0.000170838
0.000134215
8.09315e-05
5.19161e-05
1.65061e-05
-8.26119e-07
-6.48989e-06
-4.03203e-05
-5.72638e-05
-0.000133497
-0.000193399
-0.000306665
-0.000390314
-0.000524047
-0.000607356
-0.000765367
-0.000877748
-0.00107456
-0.00121928
-0.00146038
-0.00163873
-0.00192287
-0.00213272
-0.00245383
-0.00268867
-0.00303514
-0.00328387
-0.00363868
-0.00388614
-0.00422807
-0.0044566
-0.00476238
-0.00495407
-0.00520122
-0.00534051
-0.00551035
-0.00558628
-0.00566645
-0.00567425
-0.00566033
-0.00560182
-0.00549761
-0.00538059
-0.00519717
-0.00503383
-0.00478771
-0.0045926
-0.00430326
-0.00409127
-0.00377866
-0.0035633
-0.00324575
-0.00303805
-0.00273076
-0.00253869
-0.00225301
-0.00208151
-0.00182479
-0.00167614
-0.00145211
-0.00132649
-0.00113597
-0.00103212
-0.000873774
-0.000789524
-0.000657683
-0.000590061
-0.00047124
-0.000390041
-0.000279462
-0.000205423
-0.000118323
-7.98284e-05
-3.01656e-05
-2.1945e-05
-3.68454e-06
-2.81827e-06
1.21013e-06
3.28059e-06
3.91385e-06
3.21728e-06
2.69142e-06
9.20125e-07
1.07716e-07
-6.26231e-07
-2.70909e-06
-9.6222e-06
-1.36613e-05
-1.87497e-05
-2.06955e-05
2.39721e-05
2.902e-05
3.7776e-05
5.56573e-05
8.52198e-05
0.00011711
0.000162878
0.000190643
0.000213844
0.000213813
0.000188499
0.000160089
0.000107266
7.20896e-05
3.67904e-05
1.05507e-05
5.52302e-06
-2.2798e-05
-3.78838e-05
-9.09548e-05
-0.000148602
-0.000230075
-0.000311901
-0.000409667
-0.000493568
-0.000607341
-0.000719643
-0.000862678
-0.0010073
-0.00118428
-0.00136251
-0.00157276
-0.00178246
-0.00202144
-0.00225612
-0.00251487
-0.00276342
-0.00302865
-0.00327593
-0.00353103
-0.0037594
-0.00398626
-0.00417782
-0.00435918
-0.00449837
-0.00462021
-0.00469608
-0.00474956
-0.00475736
-0.00473996
-0.00468149
-0.00459707
-0.00448013
-0.00433796
-0.00417473
-0.00398792
-0.00379295
-0.00357647
-0.00336463
-0.00313343
-0.00291822
-0.00268568
-0.00247812
-0.00225504
-0.0020631
-0.0018573
-0.00168592
-0.00150225
-0.0013537
-0.00119438
-0.00106885
-0.000934055
-0.000830269
-0.000718718
-0.000634527
-0.000541488
-0.00047369
-0.000386449
-0.000306965
-0.000224751
-0.000152562
-9.02555e-05
-5.34198e-05
-2.00051e-05
-1.27448e-05
-6.99708e-07
-4.27759e-08
2.6904e-06
4.72427e-06
4.45399e-06
3.7311e-06
2.5932e-06
8.07335e-07
-1.01662e-06
-1.71762e-06
-7.42432e-06
-1.42415e-05