/*--------------------------------*- C++ -*----------------------------------*\
| =========                 |                                                 |
| \\      /  F ield         | OpenFOAM: The Open Source CFD Toolbox           |
|  \\    /   O peration     | Version:  v2106                                 |
|   \\  /    A nd           | Website:  www.openfoam.com                      |
|    \\/     M anipulation  |                                                 |
\*---------------------------------------------------------------------------*/
FoamFile
{
    version     2.0;
    format      ascii;
    arch        "LSB;label=32;scalar=64";
    class       volScalarField;
    location    "0";
    object      expGpCoeffs34;
}
// * * * * * * * * * * * * * * * * * * * * * * * * * * * * * * * * * * * * * //

dimensions      [0 0 0 0 0 0 0];

internalField   nonuniform List<scalar> 
8000
(
0.010015
0.00958061
0.0087273
0.00743696
0.00588123
0.00418912
0.00273135
0.00150364
0.000709424
0.000311266
0.00016404
0.000250079
0.000345764
0.000437083
0.000439902
0.000356801
0.000253608
0.000135654
8.92203e-05
0.000116334
0.000227844
0.0004234
0.000677192
0.000987641
0.0013601
0.00179954
0.00233524
0.00296945
0.00372522
0.00460381
0.00561883
0.0067708
0.00806339
0.00949605
0.0110588
0.0127499
0.0145435
0.0164362
0.0183866
0.0203899
0.0223913
0.0243849
0.0263076
0.0281532
0.0298569
0.0314128
0.0327622
0.0339002
0.0347816
0.0354032
0.0357392
0.0357882
0.0355474
0.0350176
0.0342193
0.0331554
0.0318668
0.0303583
0.0286861
0.026856
0.0249324
0.0229217
0.0208889
0.0188399
0.0168332
0.0148739
0.0130082
0.0112402
0.00960072
0.00809219
0.00672942
0.00551335
0.00444395
0.00352096
0.002728
0.00206311
0.00149719
0.00102359
0.000638461
0.000344043
0.000174304
0.000129709
0.00020136
0.000386746
0.000574139
0.000756874
0.00081688
0.000746919
0.000588109
0.00035255
0.000273992
0.000373873
0.000865191
0.00178845
0.00299781
0.00450371
0.00592837
0.00714309
0.00795104
0.00836554
0.01005
0.00961568
0.00876141
0.00747155
0.0058813
0.00418872
0.00269744
0.00146805
0.000679419
0.000280161
0.000156015
0.000241857
0.000353244
0.000444783
0.00044628
0.000363308
0.000250113
0.000132076
8.11562e-05
0.000108162
0.000222353
0.000417851
0.000673414
0.000983818
0.00135352
0.0017929
0.00232618
0.00296031
0.00371466
0.00459314
0.00560746
0.00675929
0.00805228
0.00948475
0.0110493
0.0127401
0.014537
0.0164295
0.0183845
0.0203875
0.0223944
0.0243879
0.0263166
0.0281619
0.0298715
0.0314272
0.0327814
0.0339193
0.0348041
0.0354256
0.0357629
0.0358119
0.0355703
0.0350406
0.0342394
0.0331756
0.0318825
0.0303741
0.0286962
0.0268663
0.0249367
0.0229262
0.0208876
0.0188388
0.0168271
0.014868
0.0129987
0.0112308
0.00958914
0.00808081
0.00671724
0.00550132
0.00443236
0.00350948
0.00271867
0.00205387
0.001491
0.00101747
0.000630039
0.00033571
0.000162372
0.000117935
0.000194662
0.000380199
0.000581224
0.000763839
0.000830443
0.00076012
0.000587888
0.000352258
0.00024676
0.000347507
0.000825836
0.00175077
0.00299118
0.00449768
0.00596004
0.00717431
0.00798451
0.00839891
0.0100877
0.00965355
0.00879823
0.0075089
0.00588138
0.00418829
0.00266082
0.00142962
0.000647019
0.000246573
0.000147348
0.000232979
0.000361321
0.000453098
0.000453168
0.000370336
0.000246339
0.000128211
7.24483e-05
9.93377e-05
0.000216423
0.000411858
0.000669334
0.000979691
0.00134641
0.00178573
0.0023164
0.00295044
0.00370326
0.00458162
0.00559519
0.00674686
0.00804028
0.00947255
0.011039
0.0127296
0.0145299
0.0164222
0.0183821
0.0203849
0.0223979
0.024391
0.0263263
0.0281714
0.0298872
0.0314427
0.0328023
0.03394
0.0348284
0.0354498
0.0357886
0.0358376
0.035595
0.0350654
0.0342611
0.0331974
0.0318993
0.0303912
0.0287071
0.0268775
0.0249412
0.022931
0.0208861
0.0188376
0.0168205
0.0148617
0.0129883
0.0112207
0.00957664
0.00806851
0.00670408
0.00548832
0.00441984
0.00349709
0.0027086
0.00204389
0.00148432
0.00101085
0.000620945
0.000326711
0.000149488
0.000105221
0.000187428
0.000373129
0.000588874
0.000771361
0.000845088
0.000774374
0.000587648
0.000351942
0.000217355
0.000319036
0.000783339
0.00171008
0.00298402
0.00449117
0.00599423
0.00720801
0.00802064
0.00843496
0.0101285
0.00969445
0.00883799
0.00754924
0.00588146
0.00418782
0.00262128
0.00138812
0.000612031
0.000210303
0.00013799
0.000223392
0.000370043
0.000462077
0.000460605
0.000377924
0.000242263
0.000124039
6.30452e-05
8.98086e-05
0.00021002
0.000405387
0.000664929
0.000975234
0.00133873
0.00177799
0.00230584
0.00293979
0.00369094
0.00456917
0.00558194
0.00673344
0.00802732
0.00945938
0.0110279
0.0127183
0.0145223
0.0164143
0.0183796
0.0203821
0.0224016
0.0243944
0.0263368
0.0281816
0.0299042
0.0314595
0.0328248
0.0339623
0.0348546
0.0354759
0.0358163
0.0358652
0.0356218
0.0350922
0.0342845
0.033221
0.0319175
0.0304096
0.0287189
0.0268895
0.0249461
0.0229362
0.0208845
0.0188363
0.0168134
0.0148548
0.0129772
0.0112099
0.00956313
0.00805523
0.00668987
0.0054743
0.00440632
0.00348371
0.00269772
0.00203311
0.0014771
0.00100372
0.000611125
0.000316994
0.000135575
9.14921e-05
0.000179618
0.000365494
0.000597135
0.000779484
0.000860902
0.000789766
0.00058739
0.000351602
0.000185601
0.000288292
0.00073745
0.00166614
0.00297629
0.00448414
0.00603115
0.00724441
0.00805967
0.00847388
0.0101726
0.00973861
0.00888093
0.00759746
0.00588155
0.00418731
0.00257858
0.00134331
0.000574251
0.000171137
0.000127885
0.000213039
0.000379461
0.000471773
0.000468637
0.000386118
0.000237862
0.000119533
5.28913e-05
7.95187e-05
0.000203106
0.000398399
0.000660173
0.00097042
0.00133044
0.00176962
0.00229443
0.00292828
0.00367765
0.00455574
0.00556763
0.00671894
0.00801333
0.00944516
0.0110159
0.012706
0.0145141
0.0164058
0.0183769
0.0203791
0.0224056
0.0243981
0.0263481
0.0281927
0.0299226
0.0314776
0.0328491
0.0339864
0.0348829
0.0355041
0.0358462
0.0358951
0.0356506
0.0351211
0.0343098
0.0332465
0.0319372
0.0304295
0.0287316
0.0269026
0.0249514
0.0229419
0.0208827
0.0188349
0.0168057
0.0148475
0.0129651
0.0111981
0.00954855
0.00804089
0.00667452
0.00545915
0.00439172
0.00346926
0.00268598
0.00202147
0.0014693
0.000996007
0.00060052
0.000306501
0.000120551
7.66668e-05
0.000171183
0.00035725
0.000606056
0.000788255
0.00087798
0.000806387
0.000587111
0.000351234
0.000151312
0.000255094
0.000687897
0.0016187
0.00296795
0.00447655
0.0060763
0.00728371
0.00810181
0.00851591
0.0102285
0.00979612
0.00895219
0.00767833
0.00591199
0.00423831
0.0025463
0.00132034
0.000534834
0.000131968
0.000117808
0.00020256
0.000388835
0.000481231
0.000477191
0.000395063
0.00023311
0.000114668
4.19267e-05
6.84073e-05
0.00019564
0.000390853
0.000655036
0.000965223
0.00131929
0.00175646
0.00227831
0.00290966
0.00365728
0.00453239
0.00554342
0.00669134
0.00798618
0.00941435
0.0109872
0.0126735
0.0144856
0.0163735
0.0183501
0.0203487
0.0223821
0.0243713
0.0263286
0.0281704
0.0299075
0.0314602
0.0328376
0.0339735
0.034874
0.0354945
0.0358382
0.035887
0.0356416
0.0351128
0.0342979
0.0332361
0.0319213
0.0304157
0.0287109
0.0268846
0.0249261
0.0229198
0.0208535
0.0188094
0.0167741
0.0148198
0.012933
0.0111699
0.00951767
0.00801383
0.0066465
0.00543464
0.00436777
0.00344839
0.00266774
0.00200583
0.00146089
0.000987682
0.000589069
0.000295171
0.000104327
6.06578e-05
0.000162075
0.000348347
0.000615902
0.000797653
0.000894805
0.000822853
0.000586162
0.00035086
0.000116492
0.000220368
0.000658244
0.00158128
0.00301285
0.00450198
0.00615771
0.00735648
0.00815881
0.00857123
0.0103065
0.00987808
0.00903472
0.00776566
0.00600087
0.00431577
0.00262529
0.00136591
0.000581411
0.00014311
0.000129274
0.000198698
0.000384954
0.000483638
0.000479657
0.000408824
0.000246333
0.00012691
5.39303e-05
6.81976e-05
0.000196522
0.000377673
0.000641517
0.000935931
0.00128704
0.00170397
0.00222573
0.00283223
0.00357972
0.00442539
0.00543623
0.00655101
0.00784561
0.00923816
0.0108107
0.0124604
0.0142721
0.0161241
0.0181003
0.0200651
0.0220981
0.0240571
0.026014
0.0278303
0.0295671
0.0310999
0.0324771
0.0335993
0.0344996
0.0351131
0.0354567
0.0355053
0.0352598
0.0347377
0.033923
0.0328745
0.0315599
0.0300742
0.0283696
0.0265691
0.0246109
0.0226353
0.0205695
0.0185599
0.0165251
0.0146079
0.0127214
0.0109962
0.0093443
0.0078774
0.00651034
0.00533283
0.00426616
0.00337717
0.00259666
0.00196061
0.0014197
0.000967081
0.00056905
0.00029364
0.00010141
7.50255e-05
0.000176625
0.000367212
0.000635648
0.000803623
0.000900667
0.000814836
0.000578249
0.000351102
0.000116605
0.000255267
0.000692296
0.00165462
0.0030847
0.00459147
0.00624561
0.00744184
0.0082436
0.00865218
0.0103908
0.00996657
0.00912383
0.00785996
0.00609684
0.00439942
0.00271058
0.00141512
0.000631705
0.000155142
0.000141655
0.000194527
0.000380763
0.000486238
0.000482319
0.000423683
0.000261467
0.000142359
6.96332e-05
7.08088e-05
0.00019915
0.000362073
0.000625801
0.000901169
0.0012522
0.0016473
0.00216896
0.00274863
0.00349597
0.00430985
0.00532049
0.00639948
0.00769381
0.00904791
0.0106202
0.0122303
0.0140417
0.0158548
0.0178306
0.0197589
0.0217915
0.0237178
0.0256744
0.0274631
0.0291995
0.0307109
0.0320877
0.0331952
0.0340953
0.0347012
0.0350447
0.035093
0.0348477
0.0343327
0.0335181
0.0324841
0.0311697
0.0297053
0.0280012
0.0262284
0.0242706
0.0223282
0.0202628
0.0182906
0.0162562
0.0143791
0.012493
0.0108087
0.00915708
0.00773009
0.0063633
0.00522289
0.00415644
0.00330026
0.00251991
0.00191177
0.00137098
0.00094321
0.000545354
0.000293992
0.000101775
9.41778e-05
0.00019547
0.000388918
0.00065697
0.000810069
0.000906997
0.000806178
0.000569705
0.000351364
0.000116727
0.000292952
0.000729066
0.00173381
0.00316228
0.00468811
0.00634054
0.00753403
0.00833516
0.00873959
0.0104818
0.0100621
0.00922005
0.00796179
0.00620048
0.00448974
0.00280268
0.00146826
0.000686016
0.000168135
0.000155025
0.000190024
0.000376238
0.000489045
0.000485195
0.000439728
0.000277809
0.000159043
8.65899e-05
7.36285e-05
0.000201988
0.000345228
0.000608831
0.000863631
0.00121458
0.0015861
0.00210765
0.00265835
0.00340552
0.00418509
0.0051955
0.00623584
0.00752989
0.00884246
0.0104144
0.0119819
0.0137928
0.015564
0.0175394
0.0194282
0.0214604
0.0233514
0.0253076
0.0270666
0.0288026
0.0302907
0.0316673
0.0327588
0.0336587
0.0342564
0.0345998
0.0346479
0.0344026
0.0338953
0.0330809
0.0320624
0.0307484
0.0293071
0.0276033
0.0258604
0.023903
0.0219965
0.0199315
0.0179998
0.0159658
0.014132
0.0122463
0.0106062
0.00895493
0.00757101
0.00620452
0.00510417
0.00403795
0.00321721
0.00243703
0.00185904
0.00131836
0.000917434
0.000519766
0.000294372
0.000102169
0.000114859
0.00021582
0.000412356
0.000679994
0.00081703
0.000913833
0.000796828
0.000560478
0.000351646
0.000116859
0.000333646
0.000768772
0.00181933
0.00324606
0.00479246
0.00644304
0.00763357
0.00843403
0.00883397
0.0105801
0.0101653
0.00932396
0.00807175
0.00631239
0.00458728
0.00290213
0.00152564
0.000744662
0.000182165
0.000169462
0.000185161
0.000371351
0.000492076
0.0004883
0.000457054
0.000295456
0.000177059
0.0001049
7.66733e-05
0.000205052
0.000327037
0.000590507
0.000823097
0.00117396
0.00152002
0.00204144
0.00256087
0.00330786
0.00405036
0.00506054
0.00605914
0.00735289
0.00862061
0.0101921
0.0117136
0.0135241
0.0152499
0.0172249
0.0190712
0.0211029
0.0229558
0.0249115
0.0266384
0.028374
0.0298371
0.0312133
0.0322876
0.0331873
0.0337761
0.0341194
0.0341672
0.0339219
0.033423
0.0326088
0.0316071
0.0302934
0.028877
0.0271736
0.0254631
0.0235062
0.0216383
0.0195739
0.0176858
0.0156523
0.0138651
0.0119799
0.0103875
0.00873663
0.00739923
0.00603306
0.00497598
0.00391001
0.00312753
0.00234753
0.00180209
0.00126155
0.000889599
0.000492136
0.000294783
0.000102594
0.000137192
0.000237794
0.000437666
0.000704857
0.000824546
0.000921215
0.000786733
0.000550515
0.000351951
0.000117002
0.000377588
0.000811649
0.00191168
0.00333653
0.00490514
0.00655373
0.00774106
0.0085408
0.0089359
0.0106862
0.0102768
0.00943616
0.00819048
0.00643324
0.0046926
0.00300953
0.0015876
0.000807991
0.000197315
0.000185053
0.00017991
0.000366074
0.00049535
0.000491653
0.000475764
0.000314511
0.000196512
0.000124673
7.99612e-05
0.000208361
0.000307395
0.000570719
0.000779326
0.0011301
0.00144866
0.00196995
0.0024556
0.0032024
0.00390488
0.0049148
0.00586833
0.00716175
0.00838105
0.00995219
0.0114239
0.0132339
0.0149108
0.0168853
0.0186856
0.0207168
0.0225286
0.0244838
0.026176
0.0279111
0.0293472
0.0307231
0.0317787
0.0326782
0.0332574
0.0336007
0.0336481
0.0334029
0.032913
0.032099
0.0311155
0.0298021
0.0284126
0.0267096
0.025034
0.0230776
0.0212516
0.0191876
0.0173466
0.0153137
0.013577
0.0116922
0.0101513
0.0085009
0.00721374
0.00584792
0.00483754
0.00377185
0.00303069
0.00225089
0.0017406
0.00120019
0.000859542
0.000462299
0.000295226
0.000103053
0.000161308
0.000261523
0.000464996
0.000731705
0.000832663
0.000929186
0.000775831
0.000539756
0.00035228
0.000117156
0.00042504
0.000857948
0.0020114
0.00343423
0.00502682
0.00667325
0.00785713
0.00865608
0.00904596
0.0108009
0.0103971
0.00955733
0.0083187
0.00656374
0.00480633
0.0031255
0.00165451
0.000876377
0.000213675
0.000201887
0.000174239
0.000360375
0.000498884
0.000495273
0.000495968
0.000335089
0.00021752
0.000146024
8.35116e-05
0.000211935
0.000286184
0.000549351
0.000732061
0.00108274
0.00137161
0.00189275
0.00234192
0.00308852
0.00374778
0.00475742
0.00566229
0.00695535
0.00812237
0.00969307
0.011111
0.0129206
0.0145447
0.0165186
0.0182693
0.0202999
0.0220673
0.024022
0.0256767
0.0274113
0.0288182
0.0301937
0.0312293
0.0321285
0.0326974
0.0330405
0.0330876
0.0328425
0.0323623
0.0315485
0.0305846
0.0292715
0.0279111
0.0262086
0.0245707
0.0226149
0.0208339
0.0187706
0.0169804
0.014948
0.0132658
0.0113816
0.00989632
0.00824635
0.00701343
0.00564799
0.00468806
0.00362266
0.00292612
0.00214653
0.00167419
0.00113394
0.000827085
0.000430079
0.000295705
0.000103549
0.000187349
0.000287147
0.000494508
0.000760696
0.000841428
0.000937794
0.000764059
0.000528138
0.000352635
0.000117322
0.00047628
0.000907944
0.00211908
0.00353972
0.00515822
0.00680232
0.00798247
0.00878057
0.00916481
0.0109485
0.0105477
0.00974254
0.00849661
0.00679026
0.0050011
0.00331988
0.00180318
0.000979063
0.000277132
0.000224301
0.000180117
0.0003492
0.000494727
0.000501386
0.000514465
0.000364454
0.000248827
0.000173223
9.76014e-05
0.000214007
0.000266762
0.0005165
0.000677757
0.00100739
0.00127564
0.00177313
0.00219697
0.00291383
0.00354306
0.0045176
0.00538863
0.00664212
0.00777275
0.00930074
0.0106813
0.0124467
0.014034
0.0159641
0.0176802
0.0196694
0.0214059
0.0233235
0.0249521
0.0266558
0.0280422
0.0293943
0.0304159
0.0313005
0.031862
0.0321998
0.0322468
0.0320059
0.0315325
0.0307327
0.0297824
0.0284923
0.0271521
0.0254805
0.0238689
0.0219505
0.0202011
0.0181801
0.0164254
0.0144382
0.0127939
0.0109556
0.00950914
0.00790379
0.0067086
0.00538453
0.00445967
0.00343082
0.00276529
0.00201597
0.00156999
0.00105765
0.00077879
0.00039945
0.000293516
0.000117692
0.000220589
0.000328155
0.000536298
0.000790069
0.000855639
0.000932424
0.000743468
0.000515769
0.000348715
0.000154552
0.000551791
0.00103811
0.00230007
0.00373319
0.0053894
0.00698968
0.00817938
0.00893969
0.00932106
0.0111341
0.0107336
0.00994563
0.0087025
0.0070723
0.00529003
0.00361645
0.00210799
0.00115181
0.000454538
0.000256878
0.000213565
0.000327924
0.00047301
0.000513185
0.000526547
0.000421402
0.000306826
0.000222107
0.00014714
0.000207169
0.000259861
0.000446142
0.000607258
0.000879121
0.00114729
0.00157374
0.00199744
0.00262499
0.00325402
0.00412321
0.00499396
0.00612879
0.00725907
0.00865907
0.0100392
0.0116723
0.013259
0.0150582
0.0167737
0.0186393
0.0203753
0.0221822
0.0238103
0.0254216
0.0268076
0.02809
0.0291112
0.029952
0.0305133
0.0308353
0.0308822
0.0306544
0.0301811
0.0294227
0.0284727
0.0272508
0.0259111
0.0243317
0.0227205
0.0209141
0.0191653
0.0172708
0.0155167
0.0136648
0.012021
0.0103204
0.00887437
0.0074027
0.0062079
0.00500784
0.00408328
0.00316412
0.00249881
0.00184032
0.00139449
0.000957989
0.000679347
0.000383193
0.000277402
0.0001785
0.000280593
0.000409884
0.00061656
0.000817195
0.000882185
0.000894987
0.000706834
0.000502813
0.000335974
0.000282849
0.000676608
0.0013225
0.0025766
0.00402902
0.00567804
0.00720879
0.00839551
0.00913945
0.00952048
0.0113455
0.0109454
0.0102366
0.00899603
0.00738444
0.00560947
0.00393669
0.00243714
0.00133834
0.000646108
0.000292057
0.000249684
0.000304948
0.000449559
0.000525926
0.000539594
0.000482897
0.000369457
0.000274893
0.000200633
0.000199784
0.000252409
0.000370167
0.00053113
0.000740614
0.00100868
0.00135842
0.00178198
0.00231309
0.0029419
0.00369733
0.00456778
0.00557448
0.00670436
0.00796617
0.0093458
0.010836
0.0124222
0.01408
0.015795
0.0175269
0.0192623
0.0209498
0.0225773
0.0240889
0.0254745
0.0266815
0.0277024
0.0284958
0.0290569
0.0293618
0.0294087
0.0291949
0.0287218
0.0280081
0.0270585
0.0259103
0.0245711
0.0230911
0.0214805
0.0197949
0.0180467
0.0162889
0.0145355
0.0128297
0.0111864
0.00963444
0.00818892
0.00686161
0.00566723
0.00460108
0.00367684
0.00287613
0.00221105
0.00165066
0.00120498
0.000850372
0.000571964
0.000365639
0.000260001
0.000244163
0.000345388
0.000498137
0.000703229
0.000846486
0.00091085
0.00085456
0.000667275
0.000488822
0.000322216
0.00042139
0.000811392
0.0016296
0.00287522
0.00435185
0.00599319
0.0075137
0.00869767
0.00936563
0.00974631
0.0117512
0.0113517
0.0106813
0.0094468
0.00776498
0.00599955
0.00411816
0.00262305
0.0013554
0.000662633
0.000237314
0.00019331
0.000291336
0.000435725
0.000584129
0.00059922
0.000558809
0.0004468
0.000307652
0.000233772
0.000166587
0.000218918
0.000270515
0.000431287
0.000562212
0.000830182
0.00108431
0.00150771
0.00192484
0.00255341
0.00317924
0.00404936
0.0049162
0.00604565
0.0071638
0.00854291
0.00989242
0.0114781
0.0130044
0.0147186
0.0163337
0.0180684
0.0196572
0.0212841
0.0227178
0.0241028
0.0252539
0.0262744
0.027034
0.0275949
0.0278883
0.0279352
0.0277322
0.0272593
0.0265788
0.0256295
0.0245371
0.0231983
0.0217966
0.0201866
0.0186007
0.0168532
0.0152145
0.0134616
0.0118904
0.0102478
0.00884042
0.00739544
0.00621615
0.00502221
0.00410028
0.00317639
0.0025092
0.00184436
0.00140243
0.00095692
0.000705214
0.000427099
0.000306888
0.00020176
0.000273116
0.000374057
0.00059453
0.000797889
0.000939138
0.00100136
0.00086105
0.000673434
0.000413597
0.000248911
0.000385118
0.000776891
0.00176146
0.00300402
0.00472102
0.0063533
0.00797135
0.00914917
0.00977881
0.0101589
0.0121862
0.011787
0.0111194
0.00988189
0.0081741
0.00640826
0.00431293
0.00282226
0.00135695
0.000663353
0.000171146
0.000125255
0.000277337
0.0004215
0.000651448
0.000668118
0.000642315
0.000531856
0.000337991
0.000264517
0.00012484
0.000176854
0.000159613
0.000320179
0.000368017
0.000635879
0.000786087
0.00120931
0.00150283
0.00213115
0.00261665
0.00348642
0.00420215
0.00533114
0.00629446
0.007673
0.0088713
0.0104563
0.0118418
0.0135554
0.0150455
0.0167796
0.0182635
0.0198897
0.0212409
0.0226253
0.0237173
0.0247374
0.0254615
0.0260222
0.0263036
0.0263505
0.0261589
0.0256861
0.0250406
0.0240917
0.0230582
0.02172
0.0204011
0.0187918
0.017312
0.0155652
0.0140535
0.0123013
0.0108742
0.00923221
0.00798014
0.00653575
0.00551587
0.00432242
0.00355619
0.00263267
0.00210996
0.0014454
0.00113205
0.000686722
0.000543058
0.000265262
0.000234221
0.000129647
0.000295796
0.000396437
0.000698793
0.00090028
0.00104523
0.00110509
0.000871151
0.000683113
0.000327843
0.000165309
0.00032923
0.000723163
0.00190202
0.00314169
0.00510967
0.00674134
0.00841635
0.00959729
0.0102219
0.0106016
0.0124659
0.0120922
0.0114266
0.0102447
0.00854443
0.00678267
0.00468467
0.00309397
0.00160646
0.000763768
0.000265847
0.000118632
0.000275041
0.000411322
0.000650224
0.000716035
0.000693871
0.000618751
0.000417152
0.000331922
0.000180029
0.000191238
0.000164914
0.000275685
0.000324548
0.00052264
0.000664709
0.000992439
0.00127623
0.00178073
0.00225513
0.00297504
0.00367874
0.00463667
0.00558756
0.00678087
0.00796692
0.00936112
0.0107351
0.0122618
0.0137416
0.0153022
0.0167774
0.0182524
0.0195966
0.0208598
0.0219467
0.0228815
0.0236026
0.0241181
0.0243985
0.0244425
0.0242519
0.023819
0.0231765
0.0223085
0.02128
0.0200601
0.0187482
0.0172889
0.0158179
0.0142454
0.0127442
0.0111818
0.00976635
0.00831947
0.00708
0.00582606
0.00481898
0.00380204
0.00304823
0.0022796
0.00176833
0.0012317
0.000928472
0.000584004
0.000441485
0.000239552
0.000220943
0.000180962
0.000363297
0.000494316
0.000808508
0.000976827
0.00111986
0.00110955
0.000864258
0.000652047
0.000288842
0.000209635
0.000376264
0.000929892
0.00213368
0.00350151
0.00547596
0.00712784
0.00879499
0.00992617
0.0105487
0.0109017
0.012768
0.0124218
0.0117583
0.0106365
0.00894432
0.00718698
0.00509902
0.00338772
0.00190741
0.000882508
0.000387404
0.000117376
0.000273932
0.000400716
0.000639594
0.000764572
0.000743427
0.000711619
0.000511502
0.000413076
0.000262077
0.000222223
0.000196046
0.000242698
0.000291536
0.000408451
0.000550453
0.000767074
0.00105073
0.00141119
0.00188536
0.00243093
0.00313429
0.00389321
0.00484365
0.00582146
0.00700695
0.00817919
0.00955254
0.0108618
0.012341
0.0136997
0.0151742
0.0164734
0.017817
0.0189391
0.0200255
0.020861
0.0215818
0.0220447
0.0223249
0.0223657
0.0221752
0.0217887
0.0211465
0.0203727
0.0193446
0.0182623
0.016951
0.0156662
0.014196
0.0128263
0.0113258
0.00998395
0.00856922
0.00734929
0.00611039
0.00507803
0.00407142
0.00325983
0.00250638
0.00191794
0.00140691
0.00101913
0.000716043
0.000488927
0.00034648
0.000242067
0.000223445
0.000265301
0.000446708
0.000614097
0.00092642
0.00105409
0.00119561
0.00110083
0.000855508
0.000614075
0.000251449
0.000273131
0.000438162
0.00118678
0.00238431
0.00390696
0.0058715
0.0075452
0.00920386
0.0102813
0.0109016
0.0112258
0.0130941
0.0127778
0.0121166
0.0110596
0.00937614
0.00762358
0.00554646
0.00370491
0.00223238
0.00101073
0.000518666
0.000116019
0.000272734
0.000389263
0.000628115
0.000816985
0.000796939
0.000811901
0.000613384
0.000500709
0.000350677
0.000255681
0.000229664
0.000207077
0.000255888
0.000285145
0.000427074
0.000523717
0.000807227
0.00101213
0.00148606
0.00184337
0.00254637
0.00309039
0.00404034
0.00478545
0.00597033
0.0069029
0.00827554
0.00935007
0.0108284
0.0119693
0.0134431
0.0145524
0.0158952
0.0168651
0.0179509
0.0186792
0.0193997
0.0198058
0.0200859
0.0201232
0.0199327
0.0195963
0.0189545
0.0182823
0.0172547
0.016321
0.0150104
0.0139141
0.0124446
0.0112939
0.00979412
0.00869052
0.0072765
0.00630164
0.00506338
0.00427027
0.00326418
0.00267433
0.00192127
0.0015274
0.00101664
0.000789584
0.000486653
0.000386259
0.000243889
0.000244783
0.000226147
0.000356374
0.000536778
0.000743442
0.00105375
0.00113753
0.00127741
0.00109141
0.000846059
0.000573071
0.000211072
0.000341697
0.000505001
0.00146417
0.00265495
0.00434479
0.00629861
0.00799588
0.00964538
0.0106648
0.0112826
0.0115757
0.0132965
0.0129907
0.0123141
0.0112907
0.00976126
0.00802717
0.00607431
0.00418824
0.00266314
0.00136575
0.000714421
0.000259546
0.000275655
0.000388076
0.000594356
0.000809308
0.000851194
0.000886936
0.000751994
0.000635611
0.000496402
0.000377837
0.000330208
0.000275597
0.000300718
0.00029576
0.0003847
0.000434492
0.000635273
0.000779412
0.00113801
0.00142173
0.00197781
0.00243778
0.00321336
0.0038674
0.00485766
0.00569638
0.00686392
0.00784647
0.00912089
0.0101764
0.0114598
0.0124946
0.0136729
0.014583
0.015541
0.0162273
0.0168654
0.0172492
0.0174981
0.017534
0.0173658
0.0170491
0.0164816
0.0158493
0.0149433
0.0140679
0.0129179
0.0118955
0.0106152
0.00955026
0.00825574
0.00724548
0.00603987
0.00516098
0.00412205
0.00342258
0.00259613
0.00209301
0.00149196
0.00117416
0.000783052
0.000618789
0.000402492
0.000351582
0.000260625
0.000310203
0.000339817
0.000509092
0.000697837
0.000918843
0.00116198
0.0012258
0.00127218
0.00104892
0.000799615
0.000514257
0.00028491
0.000458993
0.000808541
0.00184983
0.00313162
0.00488122
0.0067279
0.0084169
0.00991103
0.0108986
0.0115336
0.0118157
0.0135221
0.0132166
0.0126655
0.0116456
0.0102428
0.00851935
0.00663857
0.00476746
0.00310402
0.00181758
0.000886957
0.000436043
0.000250525
0.00036244
0.000554123
0.000768412
0.000924824
0.000962097
0.00093187
0.000817927
0.000694519
0.000577424
0.000485791
0.000431408
0.00039637
0.000391415
0.000387649
0.000437412
0.000493825
0.000637877
0.000797341
0.00108089
0.0013858
0.0018455
0.00232586
0.00297951
0.00364332
0.00448154
0.00530809
0.00629005
0.00722814
0.00828299
0.00925477
0.0102889
0.0111996
0.0121091
0.0128603
0.0135462
0.0140515
0.0144351
0.0146338
0.0146697
0.0145374
0.0142209
0.0137735
0.0131415
0.0124324
0.0115575
0.0106688
0.00964703
0.00867595
0.00761169
0.00665515
0.0056455
0.00478582
0.00390746
0.00320217
0.00250311
0.00198006
0.00147725
0.00113537
0.000817759
0.000632732
0.000468567
0.000402614
0.000351734
0.000373558
0.000422968
0.00054662
0.000714368
0.000923737
0.00114175
0.00128018
0.0013417
0.00122852
0.00100594
0.000710169
0.000426669
0.000372152
0.00054425
0.00120554
0.00223709
0.00371486
0.00544905
0.00725786
0.00893508
0.0103103
0.0112938
0.0117999
0.0120816
0.0139162
0.0136135
0.0131461
0.0121415
0.0108968
0.00918297
0.00717276
0.00531389
0.00332176
0.00203945
0.000835468
0.000382488
0.000125265
0.000234863
0.000547652
0.00076205
0.00107743
0.00111764
0.00114965
0.00103863
0.000887097
0.000771455
0.000634337
0.000580178
0.000488541
0.000483575
0.000370123
0.000419751
0.000306399
0.000450143
0.000381749
0.000664781
0.000689881
0.00114883
0.00130901
0.0019617
0.00228082
0.00311789
0.00359376
0.00457446
0.00517519
0.0062288
0.00689518
0.00792811
0.00858174
0.00949025
0.0100461
0.0107312
0.0111127
0.0114958
0.0116483
0.0116842
0.0115856
0.0112694
0.0109344
0.0103031
0.00977991
0.00890604
0.00826786
0.00724724
0.00657841
0.0055155
0.00489655
0.00388819
0.00338252
0.0025053
0.00215018
0.00145213
0.00125585
0.000753806
0.000698542
0.000381481
0.000430705
0.000266874
0.000375196
0.000324465
0.00046064
0.000509907
0.000727165
0.000893532
0.00117765
0.0013923
0.00149975
0.0015572
0.00126945
0.00104568
0.000563568
0.000282776
0.000236
0.000411923
0.00133664
0.00236627
0.00422469
0.00594647
0.00795188
0.00961924
0.0108584
0.0118255
0.0122285
0.0125071
0.0140366
0.0137875
0.0133213
0.0124849
0.0112472
0.00971726
0.00772
0.00587112
0.00388627
0.00240773
0.00120716
0.00049499
0.000238018
0.000195449
0.000508313
0.000744585
0.00106547
0.00122974
0.00126643
0.00126762
0.00111655
0.00105799
0.000921345
0.000890597
0.000806631
0.000793996
0.000680624
0.000673158
0.000559885
0.000585273
0.000516926
0.000616944
0.000642026
0.000856522
0.00101659
0.00137329
0.00169218
0.00219755
0.00267309
0.0033067
0.00390702
0.00462106
0.00528698
0.00601124
0.00666441
0.00731691
0.00787239
0.00837243
0.00875362
0.00903601
0.0091884
0.00921532
0.0091168
0.0088843
0.00854946
0.00808864
0.00756578
0.00693691
0.00629917
0.00558044
0.00491207
0.00418609
0.00356757
0.00290712
0.00240181
0.00185948
0.00150461
0.00110695
0.000910804
0.000657855
0.000602629
0.000472948
0.000522138
0.000480734
0.00058898
0.000603078
0.000730237
0.000801883
0.00102069
0.00116279
0.00144885
0.00155595
0.00165958
0.00155763
0.00126298
0.000960977
0.000477978
0.000315128
0.00026911
0.000720047
0.00164269
0.00291993
0.00477262
0.00653286
0.0085241
0.0100265
0.0112574
0.0120531
0.0124545
0.012675
0.0141667
0.0139754
0.0135057
0.0128556
0.0116256
0.0102942
0.00831093
0.00647283
0.00450239
0.00280629
0.00161476
0.000616475
0.000362257
0.000152888
0.00046521
0.000725558
0.00104638
0.00134792
0.00138653
0.00151419
0.00136574
0.00137368
0.00123843
0.001234
0.00115012
0.0011292
0.00101591
0.000946798
0.00083361
0.000731192
0.000662896
0.000565286
0.00059035
0.000540875
0.000700823
0.000737895
0.00105655
0.00120374
0.00167891
0.00193773
0.0025376
0.00288496
0.00355038
0.00394133
0.00459401
0.00497006
0.00552511
0.00582532
0.00620623
0.00637986
0.00653213
0.00654935
0.00645092
0.00630872
0.00597413
0.00569733
0.00517486
0.00481056
0.0041733
0.00378055
0.00311269
0.00275053
0.00213249
0.00184772
0.00134279
0.0011621
0.000807498
0.000734211
0.000538212
0.000554242
0.000499058
0.000571719
0.000620871
0.000711668
0.000819833
0.000903935
0.00103098
0.00112837
0.00134569
0.00145857
0.00174148
0.00172725
0.00182819
0.00154998
0.00125519
0.000867057
0.000385554
0.000351918
0.000304863
0.00105934
0.0019743
0.00352603
0.0053643
0.00716606
0.00914201
0.0104663
0.0116882
0.012294
0.0126987
0.0128563
0.0140339
0.0138517
0.0134186
0.0127905
0.011812
0.0105288
0.00891535
0.00709272
0.00528157
0.00355518
0.00220709
0.00116032
0.000585989
0.000346214
0.000409263
0.000673887
0.000975801
0.00130566
0.00150923
0.00166736
0.00170838
0.0017357
0.00172364
0.00172579
0.00172308
0.00170059
0.00163893
0.00155803
0.00145265
0.00132578
0.00120483
0.00106937
0.000974764
0.000874689
0.000848512
0.00082425
0.000898546
0.000976929
0.00116498
0.00135172
0.00164308
0.00191982
0.00228045
0.00260721
0.00298504
0.00330777
0.00364253
0.0039042
0.0041395
0.0042922
0.00438725
0.00440255
0.00434074
0.00421597
0.00400841
0.00376712
0.00345014
0.00313682
0.00276412
0.00243421
0.00206541
0.00177324
0.00146169
0.00124918
0.00103179
0.00092063
0.000811994
0.000800968
0.000792925
0.000860547
0.000926616
0.00103804
0.00114132
0.00125741
0.0013644
0.00146188
0.00154504
0.00164815
0.00176977
0.00187159
0.00195544
0.00191113
0.00178692
0.00147234
0.00112371
0.00071998
0.000466814
0.000457793
0.000779054
0.00158671
0.00273299
0.00432628
0.00605002
0.00784527
0.00944694
0.0107247
0.011684
0.0122669
0.0126504
0.0127981
0.0140243
0.0138423
0.0135838
0.0129603
0.0124009
0.0111179
0.0097148
0.00791286
0.00594302
0.00423203
0.00248933
0.00144785
0.000508503
0.000266262
0.000222488
0.000483182
0.000944515
0.00127413
0.00172943
0.00189059
0.00212829
0.00215866
0.00228894
0.0022918
0.00241537
0.0023929
0.00240228
0.00232145
0.00221143
0.00208467
0.00187428
0.00173894
0.00146596
0.00136598
0.00107829
0.00105405
0.000798905
0.000877218
0.000690871
0.000877452
0.000777674
0.00105417
0.00103746
0.00136393
0.0014081
0.00173055
0.00180183
0.00206327
0.00212623
0.00227879
0.00230637
0.00232166
0.00230275
0.00217808
0.00212054
0.00187947
0.00180768
0.00149464
0.00144237
0.00111276
0.00111315
0.000821239
0.000896864
0.000684541
0.000840242