/*--------------------------------*- C++ -*----------------------------------*\
| =========                 |                                                 |
| \\      /  F ield         | OpenFOAM: The Open Source CFD Toolbox           |
|  \\    /   O peration     | Version:  v2106                                 |
|   \\  /    A nd           | Website:  www.openfoam.com                      |
|    \\/     M anipulation  |                                                 |
\*---------------------------------------------------------------------------*/
FoamFile
{
    version     2.0;
    format      ascii;
    arch        "LSB;label=32;scalar=64";
    class       volScalarField;
    location    "0";
    object      expGpCoeffs22;
}
// * * * * * * * * * * * * * * * * * * * * * * * * * * * * * * * * * * * * * //

dimensions      [0 0 0 0 0 0 0];

internalField   nonuniform List<scalar> 
8000
(
5.99849e-06
6.94264e-06
2.5421e-05
7.1959e-05
0.000159171
0.000277319
0.000359427
0.000393849
0.000346525
0.000226151
0.000214887
0.000334439
0.000876838
0.00186185
0.00338702
0.00544679
0.00777281
0.0103578
0.0127976
0.0150829
0.0170124
0.0185691
0.0197882
0.020653
0.0212751
0.0216471
0.0218259
0.0218121
0.0216092
0.021217
0.0206406
0.0198813
0.0189602
0.01788
0.0166762
0.0153525
0.0139554
0.0124893
0.0110067
0.00951235
0.00805931
0.00665237
0.00534036
0.00412742
0.00305419
0.00212396
0.00136623
0.00078312
0.000391076
0.000190997
0.000185284
0.000373541
0.000744048
0.00129514
0.00200183
0.00286131
0.00383724
0.00492586
0.00608244
0.00730268
0.00853751
0.00978232
0.0109883
0.0121512
0.0132271
0.0142124
0.0150725
0.0158046
0.0163864
0.0168165
0.0170863
0.0171954
0.0171491
0.0169482
0.0165957
0.0160913
0.0153838
0.0144786
0.0132961
0.0118522
0.0101788
0.00829103
0.00640617
0.00453185
0.00295566
0.00168172
0.000814282
0.000350932
0.000135566
0.000149377
0.000180493
0.000216998
0.000200419
0.000132137
8.00995e-05
5.96586e-05
8.34486e-05
0.000143478
0.000194343
0.000227922
5.92246e-06
6.86641e-06
2.18386e-05
6.83274e-05
0.000156922
0.000275039
0.000368156
0.000402888
0.000350124
0.000229814
0.000192219
0.000311174
0.000829807
0.00181389
0.00334625
0.00540557
0.00776883
0.0103541
0.0128234
0.015109
0.0170441
0.0186009
0.019812
0.0206767
0.0212911
0.0216631
0.021841
0.0218273
0.0216246
0.0212324
0.0206548
0.0198956
0.0189718
0.0178918
0.0166841
0.0153606
0.0139588
0.0124929
0.0110054
0.00951121
0.0080534
0.00664664
0.00533045
0.00411766
0.00304115
0.00211105
0.00135116
0.000768129
0.000375192
0.000175139
0.00016984
0.000358073
0.000730269
0.00128129
0.00199082
0.00285019
0.00382989
0.00491837
0.00607932
0.0072994
0.0085388
0.00978345
0.0109938
0.0121565
0.0132361
0.0142213
0.015084
0.015816
0.0163993
0.0168294
0.0170993
0.0172084
0.0171611
0.0169602
0.0166081
0.0161038
0.0154036
0.0144985
0.0133194
0.0118756
0.0101905
0.00830252
0.00639195
0.00451764
0.00291953
0.00164612
0.000783434
0.000320728
0.000127231
0.000141274
0.000186998
0.000223319
0.00020246
0.000134083
7.41064e-05
5.38292e-05
8.28927e-05
0.000142928
0.000197054
0.000230626
5.84036e-06
6.78409e-06
1.79703e-05
6.44058e-05
0.000154494
0.000272576
0.000377583
0.000412648
0.00035401
0.00023377
0.000167741
0.000286053
0.00077902
0.0017621
0.00330222
0.00536105
0.00776452
0.01035
0.0128512
0.0151372
0.0170784
0.0186352
0.0198377
0.0207024
0.0213083
0.0216803
0.0218574
0.0218436
0.0216412
0.0212491
0.0206701
0.019911
0.0189843
0.0179044
0.0166926
0.0153693
0.0139625
0.0124968
0.0110039
0.00950998
0.00804702
0.00664046
0.00531975
0.00410713
0.00302708
0.0020971
0.0013349
0.000751942
0.00035804
0.000158014
0.000153163
0.00034137
0.00071539
0.00126634
0.00197893
0.00283819
0.00382195
0.00491028
0.00607595
0.00729587
0.0085402
0.00978468
0.0109997
0.0121622
0.0132458
0.0142308
0.0150965
0.0158284
0.0164133
0.0168432
0.0171133
0.0172225
0.017174
0.0169732
0.0166216
0.0161173
0.015425
0.01452
0.0133447
0.0119008
0.010203
0.00831493
0.00637658
0.00450229
0.00288053
0.00160768
0.000750122
0.000288114
0.000118232
0.000132525
0.000194022
0.000230145
0.000204664
0.000136184
6.76349e-05
4.75345e-05
8.22924e-05
0.000142334
0.000199982
0.000233546
5.75171e-06
6.6952e-06
1.37931e-05
6.01711e-05
0.000151872
0.000269916
0.000387762
0.000423187
0.000358207
0.000238041
0.000141309
0.000258925
0.000724179
0.00170618
0.00325468
0.00531298
0.00775988
0.0103457
0.0128813
0.0151677
0.0171154
0.0186723
0.0198655
0.02073
0.021327
0.0216989
0.021875
0.0218613
0.0216591
0.021267
0.0206866
0.0199276
0.0189979
0.0179181
0.0167018
0.0153787
0.0139665
0.0125011
0.0110024
0.00950865
0.00804014
0.00663378
0.00530819
0.00409575
0.00301188
0.00208205
0.00131733
0.000734462
0.000339519
0.000139523
0.000135155
0.000323334
0.000699324
0.00125019
0.0019661
0.00282522
0.00381338
0.00490155
0.00607232
0.00729205
0.00854171
0.009786
0.011006
0.0121684
0.0132563
0.0142412
0.0151099
0.0158418
0.0164283
0.0168582
0.0171285
0.0172376
0.017188
0.0169872
0.0166361
0.0161319
0.0154481
0.0145432
0.0133719
0.011928
0.0102166
0.00832833
0.00635999
0.00448572
0.0028384
0.00156617
0.000714151
0.000252895
0.000108513
0.000123077
0.000201606
0.000237516
0.000207044
0.000138453
6.06466e-05
4.07371e-05
8.16441e-05
0.000141692
0.000203143
0.000236699
5.65598e-06
6.59922e-06
9.28235e-06
5.6061e-05
0.000149041
0.000267044
0.000398753
0.000434568
0.000362738
0.000242654
0.000112766
0.000229632
0.000664959
0.00164579
0.00320335
0.00526107
0.00775486
0.010341
0.0129137
0.0152006
0.0171553
0.0187123
0.0198955
0.0207599
0.0213472
0.021719
0.0218941
0.0218804
0.0216785
0.0212865
0.0207044
0.0199456
0.0190125
0.0179329
0.0167117
0.0153888
0.0139708
0.0125056
0.0110007
0.00950722
0.0080327
0.00662657
0.00529571
0.00408347
0.00299547
0.00206578
0.00129836
0.000715587
0.000319519
0.000119555
0.000115709
0.000303857
0.000681974
0.00123275
0.00195224
0.00281122
0.00380412
0.00489212
0.00606839
0.00728792
0.00854334
0.00978743
0.0110129
0.0121751
0.0132676
0.0142523
0.0151244
0.0158562
0.0164446
0.0168744
0.0171449
0.017254
0.0172031
0.0170023
0.0166518
0.0161477
0.015473
0.0145682
0.0134013
0.0119574
0.0102313
0.0083428
0.00634207
0.00446783
0.00279292
0.00152134
0.000675308
0.000214864
9.80191e-05
0.000112875
0.000209796
0.000245475
0.000209615
0.000140903
5.31005e-05
3.33971e-05
8.19886e-05
0.000141
0.000206557
0.000240104
6.99085e-06
7.57201e-06
1.09334e-05
5.44781e-05
0.000146521
0.000262924
0.000408713
0.000444305
0.000367605
0.000248082
8.36353e-05
0.000200617
0.00060453
0.0015815
0.00314785
0.00520318
0.00774944
0.010336
0.0129488
0.0152361
0.0171985
0.0187556
0.0199279
0.0207922
0.0213442
0.0217147
0.0218888
0.0218744
0.0216728
0.021281
0.0206975
0.0199399
0.0190035
0.0179261
0.0167002
0.0153803
0.0139567
0.0124949
0.010984
0.0094943
0.00801402
0.00661153
0.00527561
0.00406665
0.00297468
0.00204761
0.00127758
0.000696535
0.000299389
0.000100124
9.6782e-05
0.00028457
0.000664734
0.00121413
0.00193706
0.00279378
0.00379125
0.00487632
0.00605789
0.00727415
0.0085351
0.00977579
0.0110066
0.0121656
0.0132625
0.0142447
0.01512
0.0158498
0.01644
0.0168688
0.0171395
0.0172484
0.0171963
0.0169962
0.0166462
0.0161435
0.0154999
0.0145952
0.0134331
0.0119891
0.0102471
0.00835842
0.00632273
0.00444851
0.00274305
0.00147335
0.00063537
0.000176483
8.81696e-05
0.000102559
0.000218525
0.000253912
0.000211337
0.000143181
5.03652e-05
3.09677e-05
8.88095e-05
0.000149909
0.000212737
0.00024627
1.14978e-05
1.07978e-05
1.41759e-05
5.27688e-05
0.000144792
0.000258032
0.000403747
0.000447755
0.000371119
0.000261589
9.74561e-05
0.000197169
0.000601173
0.00151911
0.00308454
0.00506204
0.00761164
0.0101582
0.0127705
0.0150652
0.0170179
0.0185883
0.0197352
0.02059
0.0211129
0.0214701
0.0216442
0.0216225
0.0214209
0.021031
0.0204476
0.0197014
0.0187652
0.0177083
0.0164826
0.0151909
0.0137675
0.0123394
0.0108288
0.00937519
0.00789519
0.00652831
0.00519264
0.00401562
0.00292386
0.00202229
0.0012524
0.000688272
0.0002912
9.8884e-05
9.55431e-05
0.000279856
0.000659949
0.00119592
0.00191872
0.00275346
0.00375074
0.0048074
0.00598874
0.00717286
0.00843358
0.00964142
0.010872
0.0120005
0.0130971
0.0140537
0.0149289
0.0156401
0.0162302
0.0166489
0.0169195
0.0170272
0.016975
0.0167821
0.0164322
0.0159427
0.0153244
0.014433
0.0132913
0.0118471
0.0101107
0.00823178
0.00619561
0.00436417
0.00265735
0.00144515
0.000607523
0.000181801
9.33086e-05
0.00011018
0.000225986
0.00025285
0.000210283
0.000142606
4.97574e-05
3.84815e-05
9.6175e-05
0.000161691
0.000224447
0.000258238
1.63646e-05
1.42811e-05
1.76773e-05
5.0923e-05
0.000142925
0.00025275
0.000398385
0.000451479
0.000374914
0.000276175
0.00011238
0.000193445
0.000597549
0.00145174
0.00301617
0.00490964
0.00745669
0.00994415
0.0125532
0.0148303
0.0167802
0.0183496
0.0194952
0.0203403
0.0208631
0.0212059
0.02138
0.0213504
0.0211489
0.020761
0.0201777
0.0194438
0.0185078
0.0174731
0.0162477
0.0149863
0.0135632
0.0121714
0.0106611
0.00924657
0.00776687
0.00643844
0.00510304
0.00396052
0.00286897
0.00199495
0.00122522
0.000679349
0.000282358
9.75455e-05
9.42052e-05
0.000274766
0.000654782
0.00117627
0.00189892
0.00270992
0.00370699
0.00473297
0.00591407
0.0070635
0.00832396
0.00949632
0.0107266
0.0118221
0.0129186
0.0138475
0.0147225
0.0154138
0.0160037
0.0164114
0.016682
0.0167883
0.0167362
0.0165508
0.016201
0.015726
0.0151078
0.0142311
0.0130904
0.0116608
0.0099265
0.00807853
0.00604469
0.00427013
0.0025648
0.00141469
0.000577453
0.000187544
9.8858e-05
0.000118408
0.000234042
0.000251703
0.000209144
0.000141985
4.9101e-05
4.65952e-05
0.000104129
0.000174415
0.000237093
0.000271161
2.162e-05
1.80426e-05
2.14583e-05
4.89299e-05
0.00014091
0.000247046
0.000392595
0.000455501
0.000379012
0.000291925
0.000128496
0.000189424
0.000593635
0.00137899
0.00294234
0.00474506
0.00728937
0.00971305
0.0123185
0.0145766
0.0165236
0.0180918
0.0192361
0.0200707
0.0205934
0.0209207
0.0210947
0.0210567
0.0208552
0.0204694
0.0198863
0.0191657
0.0182299
0.0172191
0.0159939
0.0147654
0.0133427
0.01199
0.01048
0.00910768
0.0076283
0.0063414
0.00500629
0.00390101
0.00280971
0.00196543
0.00119587
0.000669714
0.00027281
9.61e-05
9.27604e-05
0.00026927
0.000649202
0.00115504
0.00187753
0.00266289
0.00365976
0.0046526
0.00583345
0.0069454
0.00820559
0.00933964
0.0105697
0.0116295
0.0127257
0.0136248
0.0144996
0.0151693
0.0157591
0.016155
0.0164256
0.0165303
0.0164782
0.0163012
0.0159514
0.0154919
0.0148739
0.014013
0.0128735
0.0114595
0.00972757
0.00791305
0.00588173
0.00416858
0.00246486
0.0013818
0.000544982
0.000193744
0.00010485
0.000127294
0.000242742
0.000250464
0.000207914
0.000141315
4.83922e-05
5.53567e-05
0.000112717
0.000188154
0.000250747
0.000285116
2.7295e-05
2.21043e-05
2.55411e-05
4.67776e-05
0.000138733
0.000240887
0.000386342
0.000459844
0.000383437
0.000308933
0.000145899
0.000185083
0.000589409
0.00130043
0.00286262
0.00456735
0.0071087
0.0094635
0.012065
0.0143026
0.0162466
0.0178134
0.0189564
0.0197796
0.0203022
0.0206127
0.0207866
0.0207395
0.020538
0.0201546
0.0195716
0.0188654
0.0179298
0.0169448
0.01572
0.0145269
0.0131045
0.0117941
0.0102845
0.0089577
0.00747867
0.00623661
0.00490182
0.00383675
0.00274571
0.00193355
0.00116417
0.00065931
0.0002625
9.45391e-05
9.12004e-05
0.000263334
0.000643177
0.00113212
0.00185444
0.00261212
0.00360875
0.00456581
0.00574638
0.00681787
0.00807776
0.00917045
0.0104002
0.0114215
0.0125175
0.0133844
0.014259
0.0149053
0.015495
0.0158782
0.0161486
0.0162518
0.0161996
0.0160315
0.0156819
0.0152392
0.0146213
0.0137775
0.0126392
0.0112423
0.00951276
0.00773436
0.00570575
0.00405892
0.00235694
0.00134629
0.000509918
0.00020044
0.000111321
0.000136889
0.000252136
0.000249126
0.000206586
0.000140592
4.76268e-05
6.48177e-05
0.000121992
0.00020299
0.000265493
0.000300185
3.34231e-05
2.64904e-05
2.995e-05
4.44535e-05
0.000136382
0.000234236
0.00037959
0.000464534
0.000388216
0.000327299
0.000164691
0.000180394
0.000584845
0.0012156
0.00277653
0.00437545
0.00691359
0.00919402
0.0117914
0.0140068
0.0159474
0.0175128
0.0186542
0.0194652
0.0199876
0.02028
0.020454
0.0203969
0.0201956
0.0198146
0.0192318
0.0185411
0.0176058
0.0166486
0.0154241
0.0142694
0.0128473
0.0115826
0.0100734
0.00879575
0.0073171
0.00612345
0.004789
0.00376737
0.0026766
0.00189912
0.00112994
0.000648075
0.000251367
9.28537e-05
8.95157e-05
0.000256925
0.000636671
0.00110737
0.00182951
0.00255729
0.00355366
0.0044721
0.00565236
0.00668016
0.00793973
0.00898775
0.0102172
0.011197
0.0122927
0.0131247
0.0139991
0.0146203
0.0152098
0.0155792
0.0158496
0.0159509
0.0158988
0.0157404
0.0153908
0.0149663
0.0143485
0.0135232
0.0123862
0.0110076
0.0092808
0.0075414
0.00551572
0.0039405
0.00224041
0.00130794
0.000472054
0.000207671
0.000118309
0.00014725
0.00026228
0.000247682
0.000205152
0.000139811
4.68004e-05
7.50342e-05
0.000132006
0.000219011
0.000281415
0.000316457
4.00404e-05
3.12266e-05
3.47108e-05
4.19439e-05
0.000133844
0.000227054
0.000372299
0.000469598
0.000393375
0.000347131
0.000184983
0.000175331
0.000579917
0.001124
0.00268357
0.00416822
0.00670291
0.00890303
0.0114959
0.0136873
0.0156243
0.0171882
0.018328
0.0191258
0.019648
0.0199209
0.0200948
0.0200271
0.0198257
0.0194475
0.0188648
0.0181909
0.0172558
0.0163288
0.0151046
0.0139912
0.0125696
0.0113542
0.00984537
0.00862086
0.00714262
0.00600126
0.00466718
0.00369244
0.00260198
0.00186194
0.00109297
0.000635943
0.000239344
9.10336e-05
8.76966e-05
0.000250004
0.000629645
0.00108065
0.00180258
0.00249809
0.00349418
0.0043709
0.00555084
0.00653145
0.00779067
0.00879047
0.0100195
0.0109545
0.0120498
0.0128443
0.0137185
0.0143125
0.0149018
0.0152563
0.0155267
0.0156261
0.015574
0.015426
0.0150765
0.0146715
0.014054
0.0132486
0.0121131
0.0107543
0.00903032
0.00733304
0.00531052
0.00381263
0.00211457
0.00126653
0.000431168
0.000215479
0.000125854
0.000158439
0.000273234
0.000246122
0.000203603
0.000138967
4.59079e-05
8.60663e-05
0.000142821
0.000236311
0.000298608
0.000334028
4.97952e-05
3.99116e-05
4.50995e-05
4.9446e-05
0.000129286
0.000220475
0.000357614
0.000464622
0.000403344
0.00036787
0.000223437
0.000194483
0.000578227
0.00105968
0.00254277
0.00394136
0.00640457
0.00852618
0.011102
0.0132485
0.0152017
0.0167481
0.017878
0.0186659
0.0191296
0.0193888
0.0195517
0.0194766
0.0192721
0.0188958
0.0183218
0.0176596
0.016745
0.0158389
0.0146458
0.0135612
0.0121787
0.0109976
0.00953276
0.00834521
0.00691191
0.00580695
0.0045149
0.00357278
0.00251783
0.00180384
0.00106086
0.000621094
0.000238842
9.76253e-05
9.59145e-05
0.000254662
0.000623249
0.00106054
0.0017599
0.00243295
0.00339714
0.00424484
0.00538659
0.00633436
0.00755268
0.00851896
0.00970822
0.0106119
0.0116722
0.0124405
0.0132873
0.0138624
0.0144341
0.0147783
0.015042
0.0151401
0.0150921
0.0149514
0.0146132
0.0142218
0.0136575
0.0128678
0.0117486
0.01042
0.00869741
0.00705313
0.0050585
0.0036308
0.00198996
0.0012051
0.000413433
0.000233424
0.000144303
0.000180007
0.00027994
0.000243505
0.000199852
0.00013514
5.7774e-05
0.000106711
0.000169678
0.000267023
0.000323356
0.000359053
6.31967e-05
5.33311e-05
5.66152e-05
6.11162e-05
0.000123568
0.000214656
0.00033322
0.000439531
0.000423537
0.000388655
0.000297669
0.000270761
0.000583064
0.001065
0.00229538
0.00368905
0.00583219
0.00794356
0.0103246
0.0124607
0.0143707
0.0159107
0.0170439
0.0178304
0.0182758
0.018535
0.0186647
0.0185896
0.0183752
0.0179991
0.0174509
0.0167889
0.0159357
0.0150299
0.0139297
0.0128455
0.0115803
0.0103996
0.00906651
0.00787934
0.00658084
0.00547623
0.00431028
0.00336846
0.00242004
0.00170629
0.00104129
0.00060167
0.000262489
0.000121318
0.000124511
0.000283208
0.000618648
0.0010558
0.00168745
0.00236028
0.00322876
0.00407619
0.00510336
0.00605083
0.00714647
0.00811244
0.0091823
0.0100857
0.0110407
0.0118087
0.0125733
0.0131482
0.0136673
0.0140114
0.0142551
0.0143531
0.0143176
0.0141769
0.0138726
0.0134813
0.0129444
0.0121559
0.0110739
0.00975052
0.00812903
0.00649225
0.00470092
0.00327946
0.00188218
0.00109931
0.000451277
0.000270189
0.000187489
0.00022205
0.000275001
0.000238679
0.000191876
0.000127354
8.46016e-05
0.000132818
0.000203987
0.000300871
0.000357077
0.000392724
7.794e-05
6.80934e-05
6.51094e-05
6.98043e-05
0.000113122
0.000204192
0.000306879
0.000412436
0.000445342
0.0004111
0.000377829
0.000353129
0.000588287
0.00107074
0.00202823
0.00341659
0.0052141
0.00731442
0.00948513
0.01161
0.0134733
0.0150065
0.0161431
0.0169282
0.0173538
0.0176129
0.0177068
0.0176318
0.0174068
0.0170308
0.0165105
0.0158487
0.0150617
0.0141562
0.0131564
0.0120726
0.0109341
0.00975381
0.00856303
0.00737628
0.00622334
0.00511912
0.00408933
0.00314784
0.00231445
0.00160095
0.00102017
0.000580695
0.000288024
0.000146902
0.000155391
0.000314033
0.000613679
0.00105068
0.00160921
0.0022818
0.00304695
0.00389408
0.00479752
0.00574466
0.00670783
0.00767346
0.0086144
0.00951751
0.0103587
0.0111265
0.0118023
0.012377
0.0128393
0.0131832
0.0134053
0.0135033
0.0134813
0.0133407
0.0130729
0.0126818
0.0121743
0.0113871
0.0103455
0.00902762
0.00751526
0.00588659
0.00431479
0.00290007
0.0017658
0.00098508
0.000492142
0.00030989
0.000234122
0.00026745
0.000269667
0.000233468
0.000183263
0.000118946
0.000108654
0.000155985
0.000245116
0.00034153
0.00039447
0.000430067
9.82337e-05
8.84132e-05
6.71075e-05
7.18289e-05
7.73525e-05
0.000167464
0.000299765
0.00040518
0.000508514
0.000476245
0.000419912
0.000396327
0.000413839
0.000892178
0.00152215
0.00289942
0.00445592
0.00654233
0.00864832
0.0107622
0.0126592
0.0141862
0.0153075
0.0160912
0.0164398
0.0166989
0.0167394
0.0166644
0.0164277
0.0160518
0.0155551
0.0148936
0.0141657
0.0132606
0.0123523
0.0112688
0.0102474
0.00906756
0.00800996
0.00682365
0.0058086
0.00470479
0.0038055
0.00286437
0.00214262
0.00142938
0.000931597
0.00049229
0.000246966
0.000105897
0.000122402
0.000280984
0.000549291
0.000986128
0.00147753
0.00214987
0.00281891
0.00366572
0.0044534
0.00540018
0.00623891
0.00720417
0.0080235
0.00892626
0.00965962
0.0104271
0.0110179
0.0115924
0.0119992
0.012343
0.0125426
0.0126406
0.0126291
0.0124885
0.0122696
0.0118786
0.011447
0.010661
0.00966248
0.00834975
0.0068659
0.00524578
0.00378858
0.00238345
0.00147204
0.000697676
0.00043641
0.000255425
0.00028612
0.000318071
0.00029282
0.000255845
0.000155757
9.2217e-05
0.000104754
0.000152231
0.000297203
0.000392919
0.000450662
0.000486183
0.000120276
0.000110487
7.48746e-05
7.71081e-05
4.00598e-05
0.000131751
0.000292238
0.000397547
0.000580356
0.000550271
0.000461972
0.000439532
0.000214216
0.000687873
0.000953786
0.00231887
0.00362257
0.00569393
0.00775918
0.00986116
0.0118162
0.0133367
0.0144307
0.0152131
0.0154573
0.0157162
0.0156983
0.0156234
0.0153739
0.0149982
0.0145266
0.0138654
0.0132008
0.012296
0.0114856
0.0104026
0.00950646
0.00832712
0.00741222
0.00622639
0.0053592
0.00425584
0.00349659
0.00255584
0.00195395
0.001241
0.000832423
0.000393294
0.000198941
5.79297e-05
8.32131e-05
0.000241731
0.000476589
0.000913249
0.00133281
0.00200487
0.00257095
0.00341742
0.00408105
0.00502745
0.0057328
0.00669767
0.00738662
0.00828902
0.00890668
0.00967386
0.0101735
0.0107478
0.011095
0.0114386
0.0116139
0.0117119
0.0117115
0.011571
0.0114054
0.0110145
0.0106811
0.00989642
0.00894899
0.00764178
0.00616743
0.00455654
0.00320303
0.0018083
0.00113818
0.000370832
0.00037007
0.000190582
0.000342393
0.000372854
0.000320421
0.000282572
0.000125888
6.32256e-05
0.000103877
0.000149646
0.000351277
0.000448856
0.000511265
0.000546659
0.000152239
0.000140748
0.000105314
8.92123e-05
5.24e-05
0.000114293
0.000275095
0.000388538
0.000580448
0.000596094
0.000505821
0.000481642
0.000233563
0.000562339
0.000780677
0.0018673
0.00312349
0.00491029
0.0069592
0.0088812
0.0108381
0.0122683
0.0133471
0.014062
0.0142777
0.0144847
0.0144624
0.0143716
0.0141212
0.0137717
0.0133023
0.0127095
0.0120501
0.0112524
0.0104498
0.00950466
0.00861867
0.00759712
0.00669369
0.00567273
0.00481739
0.0038724
0.00312434
0.00232253
0.0017302
0.0011257
0.000724216
0.000354745
0.000164433
4.93987e-05
7.53545e-05
0.00021504
0.000447202
0.000822875
0.00123668
0.00181184
0.00236969
0.00309261
0.00374633
0.00455402
0.0052487
0.00607228
0.00675082
0.00752186
0.00813028
0.00878715
0.00927951
0.0097732
0.0101156
0.0104139
0.0105872
0.0106769
0.0106774
0.0105641
0.0104027
0.0100701
0.00975444
0.00904741
0.00811468
0.00691824
0.00545135
0.00402059
0.00269004
0.00152378
0.000894445
0.000307308
0.000338315
0.000220841
0.000383298
0.000390841
0.000334993
0.00027675
0.000115944
7.7209e-05
0.000120742
0.000204652
0.000405174
0.000511015
0.000573057
0.000604243
0.000186753
0.000173425
0.000138184
0.000102283
6.57256e-05
9.54417e-05
0.000255862
0.000378804
0.000570698
0.000642046
0.000552988
0.000526713
0.000279558
0.000433819
0.000649241
0.00140088
0.00264806
0.00408992
0.00612596
0.0078213
0.00976684
0.0110757
0.0121491
0.0127785
0.0129941
0.0131407
0.0131183
0.0130091
0.0127589
0.0124398
0.0119707
0.0114576
0.0107985
0.0101252
0.00932304
0.00853821
0.00765264
0.00681467
0.00591166
0.00508252
0.00422758
0.00346683
0.00271912
0.00207895
0.00148691
0.00100857
0.000607277
0.000318844
0.000128623
4.38143e-05
6.97578e-05
0.000187532
0.000419584
0.000724307
0.00113792
0.00160035
0.00215793
0.00273711
0.00339053
0.00403683
0.00473118
0.0053904
0.00606862
0.00668683
0.00729496
0.0078235
0.00831562
0.00871558
0.00905784
0.00930339
0.00947661
0.00955669
0.0095572
0.0094755
0.00931419
0.00904932
0.00873384
0.00812586
0.00719728
0.00614612
0.00468741
0.00348166
0.0021594
0.0012699
0.00064539
0.000275158
0.000306951
0.000264206
0.000425718
0.000405484
0.000349153
0.000266055
0.00010534
9.59356e-05
0.000138953
0.000264051
0.000463375
0.000578137
0.000639783
0.000666425
0.000224023
0.000208711
0.000173678
0.000116397
8.01151e-05
7.50849e-05
0.000235092
0.000368294
0.00056017
0.000691667
0.000603922
0.000575383
0.000329225
0.000295037
0.000507311
0.000897224
0.00213468
0.00320404
0.00522619
0.00667677
0.00861001
0.00978778
0.0108555
0.0113926
0.011608
0.0116894
0.011667
0.0115379
0.0112878
0.0110017
0.0105327
0.0101057
0.00944692
0.00890803
0.00810629
0.0074946
0.00660949
0.00596975
0.0050672
0.00444518
0.00359068
0.00302888
0.00228155
0.00181593
0.00122419
0.00088209
0.000481002
0.000280077
8.99528e-05
3.77841e-05
6.37144e-05
0.000157827
0.000389761
0.00061787
0.00103127
0.00137196
0.00192926
0.00235323
0.00300632
0.00347835
0.00417235
0.00465408
0.00533195
0.00578513
0.00639294
0.0067829
0.00727478
0.00757353
0.00791561
0.00810418
0.00827731
0.008347
0.00834752
0.0083
0.00813877
0.00794703
0.00763177
0.00713074
0.00620663
0.00531234
0.00386249
0.0028997
0.0015864
0.000995753
0.00037645
0.000240441
0.000273083
0.000311033
0.000471525
0.000421295
0.000364444
0.000254506
9.38885e-05
0.000116157
0.000158618
0.000328191
0.000526222
0.000650618
0.000711835
0.000733571
0.000270105
0.000254174
0.000223
0.000161446
0.000120197
0.000101784
0.000212293
0.000349179
0.000521245
0.000677428
0.000654984
0.000626432
0.00046016
0.000350041
0.000496609
0.000737033
0.00168689
0.00259457
0.00424629
0.00557787
0.00723276
0.00833818
0.00928525
0.00977888
0.00996395
0.0100199
0.0099895
0.00985271
0.00962266
0.00934941
0.00894071
0.00854737
0.00798583
0.00749958
0.00682508
0.00628117
0.00554344
0.00498128
0.0042345
0.00369351
0.0029908
0.00250682
0.00189558
0.00149823
0.00101683
0.000728011
0.000403833
0.000237125
8.56289e-05
4.62177e-05
7.07165e-05
0.000155561
0.000347355
0.00054549
0.000884425
0.0011775
0.00163312
0.00199638
0.00252987
0.00293374
0.00350086
0.00391316
0.00446793
0.00485655
0.00535536
0.00569111
0.0060967
0.00635585
0.00664052
0.00680679
0.00695453
0.00702015
0.0070274
0.00699323
0.00685977
0.00669663
0.00642173
0.00597087
0.00517141
0.00435719
0.00315067
0.00230089
0.00125933
0.000796164
0.000338094
0.000298011
0.000323944
0.000393979
0.000484946
0.000422099
0.0003506
0.000229733
0.00012129
0.000156237
0.000233099
0.000417702
0.00059632
0.000720698
0.000782676
0.000802772
0.000326277
0.000310418
0.000287708
0.000226942
0.000149488
0.000132122
0.000170472
0.000306313
0.000472373
0.000627372
0.000729538
0.000703036
0.000639711
0.000534024
0.00052664
0.000767878
0.0012326
0.00213185
0.00317073
0.00448784
0.00566853
0.00676228
0.00749692
0.00798802
0.00812163
0.0081775
0.00812375
0.00798704
0.00778982
0.00751674
0.00720763
0.00681452
0.00641409
0.00592813
0.00546491
0.00492132
0.00442872
0.00386689
0.00337959
0.00283893
0.00238947
0.00190578
0.001522
0.00112488
0.000828216
0.000539569
0.000344455
0.000177846
9.15367e-05
5.21492e-05
7.49192e-05
0.000159713
0.000285112
0.000483129
0.000698348
0.00099125
0.00127773
0.00164078
0.00197519
0.00237883
0.00273474
0.00314679
0.00349655
0.00388495
0.00420217
0.00453772
0.00479949
0.00505849
0.00524731
0.00541348
0.00551865
0.00558423
0.00560238
0.00556823
0.00548782
0.00532478
0.00512921
0.00468024
0.00410268
0.00329642
0.00250433
0.0016632
0.00107559
0.000615822
0.000439307
0.00039696
0.000443737
0.000510877
0.000491859
0.000428709
0.000309549
0.000189706
0.000148552
0.000182603
0.000330891
0.000512925
0.000703187
0.000826386
0.000860864
0.000880862
0.000394957
0.000379812
0.000367145
0.000306881
0.000149548
0.000131205
7.86351e-05
0.000213744
0.000456568
0.00061139
0.00088212
0.000859738
0.000809387
0.000707595
0.000369819
0.000607716
0.000515362
0.00140154
0.00196244
0.00326338
0.00416884
0.00525119
0.00576797
0.00625655
0.00620502
0.0062608
0.00615122
0.00601466
0.00584973
0.00557698
0.0053686
0.00497598
0.00473969
0.00425434
0.00400748
0.00346459
0.00322425
0.00266314
0.00244418
0.00190422
0.00171794
0.0012349
0.00108861
0.000692009
0.000589247
0.000300977
0.000242254
7.58589e-05
5.95521e-05
2.02122e-05
4.32461e-05
0.00012793
0.000186168
0.000383929
0.000472275
0.000764796
0.000877137
0.00123972
0.0013689
0.001772
0.00190995
0.00232149
0.00245954
0.00284744
0.00297693
0.00331202
0.00342479
0.00368347
0.00377257
0.00393852
0.00399879
0.00406428
0.00409266
0.00405857
0.00405439
0.00389155
0.00386615
0.00341908
0.00304811
0.00224983
0.00172675
0.000895883
0.000704426
0.000251296
0.000452075
0.000409389
0.000599415
0.000663203
0.000552654
0.000487794
0.000246098
0.000127915
0.000107239
0.000140594
0.000424099
0.000605569
0.000843444
0.000962689
0.000955364
0.000974164
0.000456112
0.000452777
0.000440527
0.000383432
0.000227688
0.00015507
0.000103135
0.000167852
0.0004103
0.000584986
0.000857957
0.00094929
0.000902052
0.000856751
0.000516492
0.00057646
0.000462217
0.000932125
0.00146341
0.00229875
0.00318045
0.00393732
0.00444412
0.00478736
0.0047561
0.00478165
0.00467214
0.0045692
0.00440439
0.00421579
0.00400755
0.00374455
0.00350842
0.00318871
0.00294202
0.00258796
0.00234779
0.00198403
0.00176522
0.00141626
0.00123011
0.000918231
0.00077205
0.000515771
0.00041308
0.000226367
0.000167685
5.9405e-05
4.31096e-05
1.68991e-05
3.99169e-05
9.41066e-05
0.000152304
0.000279982
0.000368267
0.000557591
0.000669854
0.000904719
0.00103381
0.0012949
0.00143276
0.00169918
0.00183714
0.00208806
0.00221747
0.00243408
0.00254678
0.00271401
0.00280306
0.0029106
0.00297083
0.00301391
0.00304227
0.00302163
0.00301745
0.00291216
0.00286826
0.00256285
0.00219998
0.0016722
0.00116905
0.000677209
0.000507454
0.000301181
0.000514433
0.00052071
0.000710056
0.000690654
0.000578004
0.00045632
0.000213579
0.000141371
0.000121658
0.000240745
0.000521735
0.00072705
0.000962412
0.00104861
0.0010408
0.00103857
0.00052215
0.000531567
0.000519516
0.000466095
0.000312066
0.000180841
0.000129592
0.000118297
0.000359756
0.000556412
0.000829112
0.00104599
0.00100121
0.00101782
0.000680966
0.000544949
0.000430013
0.000441637
0.000965337
0.00128384
0.00215491
0.00254447
0.0030453
0.00322282
0.0031915
0.0031844
0.00307497
0.00300834
0.00284365
0.00274591
0.00253784
0.0024148
0.00217884
0.00203799
0.00179149
0.00164135
0.00140135
0.00125069
0.00103205
0.000889335
0.000703326
0.000576285
0.000430214
0.000325463
0.000222849
0.0001458
8.7163e-05
4.16375e-05
2.53543e-05
1.33214e-05
3.63218e-05
5.75823e-05
0.000115736
0.000167737
0.000255955
0.000333843
0.000446022
0.000542972
0.000671966
0.000779715
0.000917465
0.00102719
0.00116505
0.00126806
0.00139736
0.00148604
0.00159866
0.00166716
0.00175614
0.00180061
0.00186079
0.00187968
0.00190802
0.0019019
0.00189772
0.00185457
0.00181075
0.00166686
0.00130783
0.00108501
0.000587904
0.000471952
0.00030528
0.000370556
0.000582539
0.000642805
0.000829531
0.000718941
0.000605377
0.000420946
0.000178709
0.000157497
0.000137227
0.000348893
0.000627167
0.000858229
0.00109088
0.00114056
0.00113306
0.00110812
0.000591386
0.000602724
0.000590276
0.000538491
0.000432339
0.000293154
0.000210936
0.000185379
0.000297275
0.000497417
0.000726459
0.000967788
0.00107326
0.00110429
0.000987307
0.000816218
0.000687016
0.000607734
0.000757534
0.000962657
0.00134533
0.0016454
0.00191594
0.00205239
0.00206777
0.0020544
0.0020061
0.00194647
0.00186119
0.00178095
0.00167336
0.00157726
0.00145418
0.00134773
0.00121674
0.0011058
0.0009745
0.000864818
0.000740275
0.000637221
0.000525574
0.000434052
0.000340372
0.000264758
0.000193011
0.000137045
9.00833e-05
5.6626e-05
3.60741e-05
2.67704e-05
3.2853e-05
4.77817e-05
7.91458e-05
0.000116596
0.00017023
0.000226695
0.000298028
0.000368456
0.00045165
0.000529928
0.000618376
0.000697953
0.000784864
0.000859433
0.000938475
0.00100258
0.00106842
0.00111794
0.00116664
0.00119899
0.00122826
0.0012425
0.00125166
0.00124831
0.00123317
0.00120198
0.00115202
0.00104761
0.000874256
0.000723525
0.000547013
0.00051097
0.000514937
0.000632164
0.000750816
0.000819043
0.000826216
0.000696894
0.000542831
0.000346562
0.000218798
0.000207154
0.000295702
0.000522911
0.000763729
0.000995158
0.00114665
0.00119167
0.00119379
0.00116546
0.000654729
0.000666129
0.000740784
0.000692045
0.000578468
0.000441989
0.000189653
0.000163415
0.000136654
0.000332399
0.000649842
0.000889625
0.00128302
0.00131944
0.0013961
0.00123417
0.000926005
0.000851081
0.000514536
0.000716291
0.000612598
0.000907173
0.00091366
0.00104872
0.00101817
0.00100482
0.00101474
0.000955169
0.000972259
0.000892088
0.000914085
0.000818062
0.000840587
0.000734239
0.000752258
0.000641423
0.000650316
0.00054073
0.00053742
0.000434457
0.000418319
0.000326878
0.000300101
0.000224554