/*--------------------------------*- C++ -*----------------------------------*\
| =========                 |                                                 |
| \\      /  F ield         | OpenFOAM: The Open Source CFD Toolbox           |
|  \\    /   O peration     | Version:  v2106                                 |
|   \\  /    A nd           | Website:  www.openfoam.com                      |
|    \\/     M anipulation  |                                                 |
\*---------------------------------------------------------------------------*/
FoamFile
{
    version     2.0;
    format      ascii;
    arch        "LSB;label=32;scalar=64";
    class       volScalarField;
    location    "0";
    object      expGpCoeffs40;
}
// * * * * * * * * * * * * * * * * * * * * * * * * * * * * * * * * * * * * * //

dimensions      [0 0 0 0 0 0 0];

internalField   nonuniform List<scalar> 
8000
(
0.00336002
0.00364538
0.00407619
0.00458251
0.00497862
0.00526283
0.00538667
0.00537419
0.00524505
0.00500756
0.0047033
0.00433525
0.00393868
0.0035168
0.00310673
0.00270839
0.0023574
0.00205199
0.00180981
0.00163124
0.00151749
0.00146997
0.00147537
0.00153434
0.00161772
0.00172484
0.00183315
0.00194175
0.00204405
0.00213981
0.00222658
0.00230413
0.00237061
0.00242586
0.0024688
0.00249938
0.00251739
0.00252282
0.00251629
0.00249785
0.00246874
0.00242906
0.00238044
0.00232302
0.00225857
0.00218726
0.00211081
0.0020294
0.00194459
0.00185655
0.00176662
0.00167494
0.00158267
0.0014899
0.00139759
0.00130585
0.00121546
0.00112653
0.00103974
0.000955178
0.000873455
0.000794646
0.000719286
0.000647436
0.000579531
0.000515618
0.000455994
0.000400692
0.000349831
0.000303424
0.000261389
0.000223721
0.000190142
0.00016063
0.000134856
0.000112801
9.43542e-05
7.93391e-05
6.70958e-05
5.76514e-05
4.93758e-05
4.22762e-05
3.50605e-05
2.77029e-05
2.04808e-05
1.34011e-05
7.79188e-06
3.74304e-06
9.22567e-07
-8.21122e-07
-6.13959e-06
-1.55185e-05
-3.52682e-05
-6.67779e-05
-0.000105498
-0.000151203
-0.0001885
-0.00021024
-0.000217672
-0.000216677
0.00333704
0.00362234
0.00408117
0.00458754
0.00499082
0.00527547
0.00539771
0.00538559
0.00525206
0.0050147
0.0047072
0.00433913
0.00393972
0.00351775
0.00310444
0.00270595
0.00235274
0.00204719
0.00180456
0.00162591
0.00151229
0.00146473
0.00147201
0.00153096
0.00161721
0.00172432
0.00183356
0.00194214
0.00204469
0.00214044
0.00222741
0.00230496
0.00237158
0.00242682
0.00246983
0.00250041
0.00251839
0.00252383
0.00251721
0.00249878
0.00246953
0.00242986
0.00238108
0.00232367
0.00225905
0.00218775
0.00211114
0.00202974
0.00194479
0.00185675
0.0017667
0.00167504
0.00158266
0.0014899
0.00139751
0.00130577
0.00121531
0.00112639
0.00103953
0.000954977
0.000873191
0.000794393
0.000718979
0.000647137
0.000579189
0.000515285
0.000455633
0.000400339
0.000349468
0.000303067
0.000261041
0.000223378
0.000189827
0.000160319
0.000134566
0.000112514
9.40733e-05
7.90604e-05
6.69226e-05
5.74804e-05
4.93542e-05
4.22549e-05
3.50973e-05
2.77381e-05
2.04145e-05
1.33346e-05
7.60539e-06
3.56009e-06
9.1768e-07
-8.26444e-07
-5.5185e-06
-1.49199e-05
-3.41088e-05
-6.56696e-05
-0.000105549
-0.000151265
-0.000190429
-0.000212143
-0.000217592
-0.000216596
0.00331222
0.00359746
0.00408655
0.00459298
0.005004
0.00528911
0.00540963
0.00539791
0.00525964
0.00502242
0.00471141
0.00434333
0.00394085
0.00351877
0.00310197
0.00270332
0.00234771
0.00204202
0.00179889
0.00162017
0.00150667
0.00145908
0.00146838
0.00152732
0.00161666
0.00172375
0.001834
0.00194256
0.00204539
0.00214112
0.00222832
0.00230585
0.00237262
0.00242786
0.00247094
0.00250151
0.00251948
0.00252491
0.0025182
0.00249977
0.00247038
0.00243072
0.00238176
0.00232436
0.00225957
0.00218827
0.0021115
0.0020301
0.001945
0.00185698
0.00176679
0.00167514
0.00158265
0.00148991
0.00139742
0.00130569
0.00121514
0.00112623
0.0010393
0.000954761
0.000872907
0.000794119
0.000718647
0.000646815
0.00057882
0.000514925
0.000455243
0.000399957
0.000349076
0.000302681
0.000260666
0.000223009
0.000189487
0.000159983
0.000134253
0.000112204
9.37699e-05
7.87595e-05
6.67356e-05
5.72957e-05
4.93309e-05
4.22319e-05
3.51371e-05
2.77761e-05
2.03429e-05
1.32629e-05
7.404e-06
3.36253e-06
9.12403e-07
-8.3219e-07
-4.84782e-06
-1.42735e-05
-3.28568e-05
-6.44728e-05
-0.000105603
-0.000151332
-0.000192512
-0.000214197
-0.000217505
-0.00021651
0.00328543
0.00357059
0.00409236
0.00459885
0.00501823
0.00530385
0.00542251
0.00541121
0.00526783
0.00503074
0.00471596
0.00434786
0.00394208
0.00351988
0.0030993
0.00270048
0.00234227
0.00203643
0.00179277
0.00161396
0.0015006
0.00145297
0.00146445
0.00152338
0.00161606
0.00172314
0.00183447
0.00194302
0.00204613
0.00214186
0.00222929
0.00230682
0.00237375
0.00242898
0.00247213
0.0025027
0.00252065
0.00252608
0.00251927
0.00250085
0.0024713
0.00243164
0.00238251
0.00232511
0.00226012
0.00218884
0.00211188
0.0020305
0.00194523
0.00185722
0.00176689
0.00167526
0.00158264
0.00148991
0.00139732
0.00130561
0.00121497
0.00112607
0.00103905
0.000954527
0.0008726
0.000793824
0.000718288
0.000646467
0.000578422
0.000514537
0.000454822
0.000399544
0.000348652
0.000302265
0.000260262
0.000222609
0.000189119
0.00015962
0.000133915
0.000111869
9.34423e-05
7.84345e-05
6.65336e-05
5.70962e-05
4.93057e-05
4.2207e-05
3.51801e-05
2.78171e-05
2.02656e-05
1.31854e-05
7.18654e-06
3.14919e-06
9.06704e-07
-8.38395e-07
-4.12359e-06
-1.35756e-05
-3.15049e-05
-6.31804e-05
-0.000105662
-0.000151404
-0.000194762
-0.000216416
-0.000217411
-0.000216416
0.00325649
0.00354158
0.00409863
0.00460595
0.00503359
0.00531976
0.00543641
0.00542558
0.00527666
0.00503974
0.00472087
0.00435275
0.00394339
0.00352108
0.00309643
0.00269741
0.0023364
0.00203039
0.00178616
0.00160726
0.00149405
0.00144638
0.00146022
0.00151913
0.00161542
0.00172248
0.00183498
0.00194351
0.00204694
0.00214265
0.00223035
0.00230786
0.00237498
0.00243019
0.00247342
0.00250399
0.00252191
0.00252735
0.00252043
0.00250201
0.00247229
0.00243264
0.00238331
0.00232592
0.00226072
0.00218945
0.00211229
0.00203092
0.00194548
0.00185748
0.001767
0.00167538
0.00158263
0.00148992
0.00139721
0.00130551
0.00121477
0.00112589
0.00103879
0.000954274
0.000872269
0.000793505
0.0007179
0.000646091
0.000577993
0.000514117
0.000454368
0.000399099
0.000348195
0.000301815
0.000259824
0.000222178
0.000188723
0.000159228
0.00013355
0.000111508
9.30885e-05
7.80836e-05
6.63155e-05
5.68808e-05
4.92786e-05
4.21802e-05
3.52265e-05
2.78614e-05
2.01822e-05
1.31017e-05
6.95171e-06
2.91883e-06
9.0055e-07
-8.45095e-07
-3.34153e-06
-1.28219e-05
-3.0045e-05
-6.17849e-05
-0.000105726
-0.000151481
-0.000197638
-0.000218812
-0.00021731
-0.000216315
0.00323742
0.00352348
0.00410526
0.0046183
0.00504874
0.00534088
0.0054524
0.00544667
0.00528665
0.00505163
0.00472781
0.00436247
0.00394791
0.00352904
0.00309443
0.0026955
0.00233006
0.00202387
0.00177902
0.00160003
0.00148697
0.00143926
0.00145564
0.00151454
0.00162019
0.00172785
0.00184149
0.00195058
0.00205431
0.00215047
0.00223842
0.00231624
0.00238353
0.00243889
0.0024822
0.00251274
0.00253065
0.0025359
0.00252888
0.00251012
0.00248023
0.00244015
0.00239061
0.00233268
0.00226727
0.00219541
0.00211805
0.00203606
0.00195045
0.00186181
0.00177118
0.00167897
0.0015861
0.00149282
0.0014
0.00130779
0.00121696
0.00112763
0.00104044
0.000955529
0.000873449
0.000794355
0.000718683
0.000646598
0.000578449
0.000514349
0.000454568
0.000399125
0.000348211
0.000301698
0.000259721
0.000221977
0.000188556
0.000158992
0.00013334
0.00011125
9.27065e-05
7.77047e-05
6.608e-05
5.66482e-05
4.92492e-05
4.21512e-05
3.52767e-05
2.79093e-05
2.00865e-05
1.30091e-05
6.70367e-06
2.67906e-06
8.85947e-07
-8.72132e-07
-2.57713e-06
-1.20535e-05
-2.94418e-05
-6.09371e-05
-0.000108653
-0.000153745
-0.000203506
-0.000224316
-0.000219356
-0.00021815
0.00324275
0.00353066
0.00411239
0.00463163
0.00506245
0.00536539
0.00547777
0.00548488
0.00532603
0.00510187
0.00477937
0.0044203
0.0040071
0.00358904
0.00315575
0.00275312
0.00238612
0.0020708
0.00182724
0.0016397
0.00152914
0.00147845
0.0015004
0.00156369
0.00167595
0.00179
0.00190361
0.00201866
0.00212237
0.00222333
0.00231127
0.0023924
0.00245968
0.00251667
0.00255996
0.00259033
0.00260824
0.00261157
0.00260455
0.00258231
0.00255243
0.00250758
0.00245805
0.00239439
0.002329
0.0022508
0.00217346
0.00208485
0.00199926
0.00190402
0.00181341
0.00171484
0.00162198
0.00152275
0.00142995
0.00133231
0.0012415
0.00114733
0.00106016
0.000971038
0.000888973
0.000806298
0.000730641
0.000655583
0.000587447
0.000520944
0.000461174
0.000403842
0.000352938
0.000304985
0.000263015
0.000224209
0.000190793
0.00016047
0.000134823
0.000112195
9.35067e-05
7.81264e-05
6.64518e-05
5.67317e-05
4.93584e-05
4.19709e-05
3.51095e-05
2.75799e-05
1.97458e-05
1.27803e-05
6.47796e-06
2.57674e-06
7.8551e-07
-1.43124e-06
-3.12098e-06
-1.4154e-05
-3.14858e-05
-6.54495e-05
-0.000113051
-0.000160209
-0.000209843
-0.000230913
-0.000225918
-0.000224275
0.00324851
0.00353841
0.00412009
0.00464603
0.00507724
0.00539186
0.00550516
0.00552615
0.00536855
0.00515613
0.00483505
0.00448274
0.00407102
0.00365383
0.00322197
0.00281534
0.00244959
0.00212836
0.00188575
0.00169397
0.00158399
0.00153352
0.00155569
0.00162391
0.00173615
0.0018571
0.00197069
0.00209218
0.00219587
0.00230201
0.00238993
0.00247465
0.00254191
0.00260065
0.00264394
0.00267412
0.00269202
0.00269329
0.00268627
0.00266027
0.0026304
0.00258039
0.00253087
0.00246102
0.00239564
0.0023106
0.00223328
0.00213754
0.00205196
0.0019496
0.00185901
0.00175357
0.00166072
0.00155507
0.00146229
0.00135879
0.001268
0.0011686
0.00108145
0.000987785
0.000905736
0.000819195
0.000743553
0.000665286
0.000597164
0.000528066
0.000468308
0.000408936
0.000358042
0.000308535
0.000266574
0.000226618
0.00019321
0.000162065
0.000136423
0.000113216
9.45314e-05
7.86981e-05
6.70234e-05
5.68845e-05
4.95102e-05
4.17592e-05
3.49005e-05
2.72064e-05
1.93779e-05
1.25333e-05
6.23423e-06
2.46624e-06
6.77053e-07
-2.03499e-06
-3.70826e-06
-1.64222e-05
-3.36929e-05
-7.03222e-05
-0.000117801
-0.000167189
-0.000216685
-0.000238036
-0.000233004
-0.000230889
0.00325473
0.00354678
0.0041284
0.00466158
0.00509322
0.00542045
0.00553473
0.00557072
0.00541447
0.00521471
0.00489517
0.00455017
0.00414004
0.00372379
0.00329348
0.00288253
0.00251813
0.00219052
0.00194892
0.00175257
0.00164323
0.00159297
0.00161539
0.00168895
0.00180116
0.00192956
0.00204313
0.00217157
0.00227523
0.00238697
0.00247487
0.00256346
0.00263071
0.00269133
0.00273461
0.0027646
0.00278249
0.00278153
0.00277451
0.00274446
0.00271459
0.00265901
0.0026095
0.00253298
0.00246762
0.00237519
0.00229788
0.00219443
0.00210887
0.00199882
0.00190824
0.00179539
0.00170257
0.00158997
0.00149721
0.00138738
0.00129661
0.00119158
0.00110444
0.00100587
0.000923838
0.000833121
0.000757496
0.000675763
0.000607656
0.000535756
0.000476011
0.000414437
0.000363554
0.000312367
0.000270416
0.00022922
0.000195819
0.000163788
0.000138152
0.000114319
9.5638e-05
7.93154e-05
6.76406e-05
5.70496e-05
4.96742e-05
4.15305e-05
3.46748e-05
2.68031e-05
1.89806e-05
1.22665e-05
5.97104e-06
2.34693e-06
5.59938e-07
-2.68694e-06
-4.34243e-06
-1.88716e-05
-3.60764e-05
-7.5584e-05
-0.00012293
-0.000174727
-0.000224074
-0.000245727
-0.000240655
-0.000238031
0.00326145
0.00355582
0.00413737
0.00467837
0.00511048
0.00545131
0.00556667
0.00561884
0.00546405
0.00527797
0.00496009
0.00462298
0.00421458
0.00379935
0.0033707
0.00295509
0.00259215
0.00225764
0.00201714
0.00181585
0.0017072
0.00165718
0.00167985
0.00175917
0.00187136
0.0020078
0.00212134
0.00225729
0.00236093
0.00247871
0.00256659
0.00265936
0.00272659
0.00278926
0.00283253
0.0028623
0.00288019
0.00287681
0.0028698
0.00283536
0.0028055
0.00274392
0.00269442
0.00261068
0.00254533
0.00244493
0.00236764
0.00225587
0.00217033
0.00205196
0.00196141
0.00184055
0.00174775
0.00162766
0.00153492
0.00141826
0.0013275
0.00121638
0.00112927
0.0010254
0.000943385
0.00084816
0.000772552
0.000687077
0.000618986
0.00054406
0.000484329
0.000420378
0.000369507
0.000316506
0.000274564
0.00023203
0.000198637
0.000165648
0.000140018
0.000115509
9.68329e-05
7.9982e-05
6.8307e-05
5.72278e-05
4.98513e-05
4.12836e-05
3.44312e-05
2.63675e-05
1.85517e-05
1.19784e-05
5.68684e-06
2.21808e-06
4.33471e-07
-3.39094e-06
-5.02724e-06
-2.15165e-05
-3.86501e-05
-8.12658e-05
-0.000128468
-0.000182866
-0.000232053
-0.000254033
-0.000248918
-0.000245743
0.0032687
0.00356558
0.00414706
0.0046965
0.00512911
0.00548464
0.00560115
0.0056708
0.0055176
0.00534628
0.0050302
0.00470161
0.00429506
0.00388093
0.00345408
0.00303344
0.00267207
0.00233011
0.00209081
0.00188419
0.00177628
0.00172651
0.00174947
0.001835
0.00194717
0.0020923
0.00220581
0.00234986
0.00245347
0.00257778
0.00266563
0.00276292
0.00283014
0.002895
0.00293826
0.0029678
0.00298568
0.00297971
0.00297269
0.00293352
0.00290367
0.0028356
0.00278611
0.00269459
0.00262925
0.00252024
0.00244297
0.00232221
0.00223669
0.00210935
0.00201882
0.00188931
0.00179654
0.00166835
0.00157564
0.00145159
0.00136086
0.00124317
0.00115608
0.00104648
0.000964492
0.000864399
0.000788811
0.000699294
0.000631221
0.000553027
0.000493312
0.000426792
0.000375934
0.000320976
0.000279045
0.000235064
0.000201679
0.000167657
0.000142034
0.000116795
9.81232e-05
8.07018e-05
6.90267e-05
5.74202e-05
5.00424e-05
4.10169e-05
3.4168e-05
2.58972e-05
1.80884e-05
1.16673e-05
5.37995e-06
2.07895e-06
2.96908e-07
-4.15116e-06
-5.76672e-06
-2.43725e-05
-4.14292e-05
-8.74013e-05
-0.000134448
-0.000191656
-0.000240669
-0.000263002
-0.00025784
-0.000254071
0.00327653
0.00357612
0.00415753
0.00471608
0.00514924
0.00552063
0.00563839
0.00572691
0.00557542
0.00542005
0.0051059
0.00478651
0.00438198
0.00396902
0.00354412
0.00311804
0.00275837
0.00240838
0.00217036
0.00195798
0.00185087
0.00180138
0.00182464
0.00191689
0.00202903
0.00218354
0.00229702
0.00244982
0.0025534
0.00268475
0.00277259
0.00287475
0.00294195
0.00300919
0.00305244
0.00308172
0.0030996
0.00309081
0.0030838
0.00303952
0.00300967
0.0029346
0.00288513
0.00278519
0.00271988
0.00260156
0.00252431
0.00239385
0.00230836
0.00217133
0.00208082
0.00194197
0.00184922
0.0017123
0.00161961
0.0014876
0.00139689
0.0012721
0.00118503
0.00106925
0.000987285
0.000881934
0.000806367
0.000712487
0.000644432
0.00056271
0.000503011
0.000433719
0.000382875
0.000325802
0.000283882
0.00023834
0.000204965
0.000169827
0.00014421
0.000118183
9.95165e-05
8.14791e-05
6.98039e-05
5.7628e-05
5.02489e-05
4.0729e-05
3.38839e-05
2.53894e-05
1.75882e-05
1.13314e-05
5.04855e-06
1.92872e-06
1.49441e-07
-4.97207e-06
-6.56524e-06
-2.74566e-05
-4.44303e-05
-9.40267e-05
-0.000140906
-0.000201147
-0.000249973
-0.000272687
-0.000267475
-0.000263064
0.00331709
0.0036177
0.00417782
0.00473712
0.00517792
0.00555641
0.0056943
0.00579336
0.00565866
0.0055149
0.00521632
0.00490263
0.00450959
0.00409558
0.0036712
0.00324227
0.00287355
0.00252236
0.00227318
0.00206188
0.00194757
0.00190186
0.0019281
0.00202568
0.00215303
0.00231403
0.00243371
0.00259256
0.00270202
0.00283825
0.00293049
0.00303603
0.00310589
0.00317478
0.00321879
0.00324789
0.0032646
0.00325386
0.00324386
0.00319604
0.00316164
0.0030817
0.00302642
0.00292067
0.00284867
0.00272391
0.00263947
0.00250229
0.00240944
0.00226572
0.00216798
0.00202266
0.00192304
0.00178007
0.00168102
0.0015435
0.00144705
0.00131735
0.00122523
0.00110518
0.00101886
0.000909876
0.000830655
0.000733758
0.000662703
0.000578546
0.000516447
0.000445238
0.000392524
0.000333992
0.000290652
0.000244032
0.000209606
0.000173698
0.000147333
0.000120763
0.000101362
8.28184e-05
7.0776e-05
5.80694e-05
5.04096e-05
4.04701e-05
3.34e-05
2.4752e-05
1.69793e-05
1.08482e-05
4.77894e-06
1.79222e-06
-2.92176e-07
-5.90159e-06
-8.9232e-06
-3.1514e-05
-5.12875e-05
-0.000103797
-0.000153004
-0.000216085
-0.000264625
-0.000288342
-0.000282703
-0.000278006
0.00339618
0.00369679
0.00420024
0.00475981
0.00521193
0.00559167
0.00577434
0.00587618
0.00579319
0.00565346
0.00539226
0.00508321
0.00470932
0.00430014
0.00387887
0.00345451
0.00307557
0.00272814
0.00246391
0.00225516
0.00213409
0.00208974
0.00211935
0.00221714
0.00235593
0.00251687
0.00265535
0.00281415
0.0029414
0.00307758
0.00318319
0.00328869
0.00336666
0.00343552
0.00348185
0.00351095
0.00352413
0.00351339
0.00349437
0.00344657
0.00339838
0.00331846
0.00324562
0.0031399
0.00304767
0.00292295
0.00281676
0.00267963
0.00256453
0.00242085
0.00230125
0.00215597
0.00203554
0.00189262
0.00177433
0.00163685
0.00152304
0.00139338
0.00128596
0.00116595
0.00106646
0.000957504
0.000867207
0.000770342
0.000690197
0.000606066
0.000536693
0.000465507
0.000407121
0.000348607
0.000300958
0.000254353
0.000216738
0.000180841
0.000152203
0.000125641
0.000104591
8.60494e-05
7.23633e-05
5.96483e-05
5.03747e-05
4.04357e-05
3.23805e-05
2.37488e-05
1.61584e-05
1.00424e-05
4.67819e-06
1.69185e-06
-1.40673e-06
-6.99048e-06
-1.50257e-05
-3.74547e-05
-6.552e-05
-0.000117625
-0.000171664
-0.000234263
-0.000282057
-0.000305542
-0.000304609
-0.000299889
0.00347332
0.00377393
0.00423076
0.00479057
0.00525772
0.00563862
0.00586076
0.00596561
0.00593845
0.00580308
0.00558224
0.0052782
0.00492498
0.00452103
0.00410311
0.00368371
0.00329373
0.00295034
0.00266986
0.00246388
0.00233549
0.00229262
0.00232587
0.00242388
0.00257503
0.00273592
0.00289469
0.00305343
0.00319989
0.00333602
0.00345607
0.00356154
0.00364824
0.00371708
0.00376592
0.003795
0.00380438
0.00379365
0.00376488
0.00371709
0.00365402
0.00357412
0.00348231
0.00337663
0.00326256
0.00313789
0.00300821
0.00287112
0.002732
0.00258837
0.00244516
0.00229993
0.00215704
0.00201417
0.00187508
0.00173765
0.00160509
0.00147547
0.00135153
0.00123156
0.00111785
0.00100893
0.000906677
0.000809846
0.000719885
0.000635784
0.000558555
0.000487394
0.000422882
0.000364389
0.000312087
0.000265498
0.000224439
0.000188555
0.000157462
0.000130909
0.000108078
8.95383e-05
7.40774e-05
6.13534e-05
5.0337e-05
4.03985e-05
3.12796e-05
2.26654e-05
1.5272e-05
9.17225e-06
4.56939e-06
1.58346e-06
-2.61028e-06
-8.1663e-06
-2.16155e-05
-4.38696e-05
-8.08888e-05
-0.000132557
-0.000192259
-0.000254348
-0.000306133
-0.000329402
-0.000328135
-0.00032339
0.00342364
0.00372409
0.0042752
0.00483557
0.00535916
0.0057433
0.00601736
0.00612745
0.00613865
0.00600939
0.00581748
0.00551971
0.00517303
0.00477511
0.00433907
0.00392486
0.00350587
0.00316636
0.00286186
0.00265837
0.00252028
0.0024787
0.00252655
0.00262478
0.00280874
0.00296956
0.00315749
0.00331617
0.00348538
0.00362146
0.00375876
0.00386418
0.00396138
0.0040302
0.00408211
0.00411118
0.00411611
0.00410538
0.00406517
0.0040174
0.00393691
0.00385705
0.00374321
0.00363756
0.00349835
0.00337372
0.00321723
0.0030802
0.00291388
0.00277031
0.00260057
0.0024554
0.00228744
0.00214462
0.00198246
0.00184509
0.00169179
0.00156222
0.00142006
0.00130014
0.00117078
0.0010619
0.000946525
0.00084973
0.000749059
0.000664989
0.000579275
0.000508141
0.000437125
0.000378654
0.000321549
0.000274977
0.000230509
0.000194638
0.000161198
0.000134655
0.000110357
9.18222e-05
7.50838e-05
6.23575e-05
5.00164e-05
4.00827e-05
2.97895e-05
2.12007e-05
1.34898e-05
7.42741e-06
3.86747e-06
8.96763e-07
-2.21301e-06
-7.78622e-06
-2.31286e-05
-4.53697e-05
-8.98427e-05
-0.000141272
-0.000217202
-0.000278641
-0.000342002
-0.000364794
-0.00035146
-0.000346691
0.0033711
0.00367183
0.00431674
0.00488145
0.0054669
0.00585196
0.00618693
0.0063028
0.00635881
0.0062362
0.00607379
0.00578283
0.00544183
0.00505044
0.00459324
0.00418464
0.00373118
0.00339583
0.00306287
0.00286208
0.00271217
0.00267199
0.00273908
0.00283754
0.00306094
0.0032217
0.0034415
0.00360012
0.00379402
0.00393004
0.00408604
0.00419142
0.00430002
0.00436881
0.00442405
0.00445311
0.00445321
0.00444249
0.00438988
0.00434213
0.00424276
0.00416293
0.00402522
0.00391962
0.00375317
0.00362859
0.00344307
0.00330609
0.00311034
0.00296683
0.0027684
0.00262328
0.00242821
0.00228545
0.00209834
0.00196102
0.00178531
0.00165579
0.00149394
0.00137406
0.00122779
0.00111896
0.000989405
0.000892649
0.000780407
0.000696372
0.000601494
0.000530388
0.000452356
0.000393909
0.000331628
0.000285076
0.000236943
0.000201087
0.000165127
0.000138594
0.000112541
9.4011e-05
7.59749e-05
6.3246e-05
4.96128e-05
3.96844e-05
2.81326e-05
1.95713e-05
1.14835e-05
5.46231e-06
3.07346e-06
1.19945e-07
-1.65637e-06
-7.25033e-06
-2.42587e-05
-4.6493e-05
-9.94414e-05
-0.00015063
-0.000244305
-0.000305162
-0.000379895
-0.00040253
-0.000376878
-0.000371983
0.00338458
0.00369147
0.00433626
0.00492542
0.00551213
0.00594587
0.00629024
0.00646443
0.0065331
0.0064661
0.00631278
0.00606341
0.00572947
0.00535876
0.00490514
0.00449618
0.00404266
0.0036944
0.00336122
0.00314929
0.0030009
0.00296467
0.00303971
0.00316121
0.00339694
0.0035894
0.00381159
0.00399827
0.004194
0.00435107
0.00450846
0.00462644
0.00473588
0.00480795
0.00486343
0.00488626
0.00488599
0.00486003
0.00480648
0.00473562
0.00463482
0.00452565
0.00438614
0.00424683
0.00407834
0.00391763
0.00372993
0.00355617
0.00335823
0.00317883
0.00297824
0.00279932
0.00260222
0.00242856
0.0022396
0.00207482
0.00189744
0.00174415
0.00158083
0.00144091
0.00129338
0.0011681
0.0010375
0.000927632
0.000814537
0.000720383
0.000624831
0.000546192
0.000467646
0.000403812
0.000341154
0.000290922
0.000242524
0.000204282
0.000168141
0.000140095
0.000114005
9.44337e-05
7.62132e-05
6.25194e-05
4.86664e-05
3.81198e-05
2.63857e-05
1.8019e-05
9.9206e-06
4.48851e-06
2.24941e-06
-1.58776e-06
-3.22766e-06
-1.35239e-05
-3.05993e-05
-6.23746e-05
-0.000116534
-0.000180196
-0.000274471
-0.000345186
-0.000419076
-0.000441389
-0.000415532
-0.000407564
0.00339912
0.00371268
0.00435734
0.00497289
0.00556098
0.00604729
0.00639542
0.00663879
0.00671324
0.0067128
0.00656648
0.00636607
0.0060398
0.00569251
0.00524666
0.00483634
0.0043898
0.00402671
0.00369893
0.00347588
0.00333093
0.00330241
0.0033788
0.00352945
0.00376509
0.00399446
0.00421654
0.00443587
0.00463152
0.00481308
0.00497038
0.00510303
0.00521243
0.00528832
0.00534377
0.00535936
0.00535909
0.00531539
0.00526186
0.00516412
0.00506337
0.00492005
0.00478061
0.00460208
0.00443366
0.0042309
0.00404329
0.00382675
0.00362889
0.00340774
0.00320725
0.00298898
0.00279197
0.00258236
0.00239349
0.00219675
0.00201945
0.0018385
0.00167526
0.00151201
0.00136455
0.00122012
0.00108958
0.000964456
0.000851415
0.000745484
0.000649977
0.000562568
0.00048406
0.000413955
0.000351327
0.000296811
0.000248436
0.000207417
0.000171292
0.000141485
0.000115407
9.4496e-05
7.62836e-05
6.13573e-05
4.75195e-05
3.62135e-05
2.45077e-05
1.63756e-05
8.30592e-06
3.58156e-06
1.36201e-06
-3.52442e-06
-5.11582e-06
-2.10941e-05
-3.79759e-05
-8.13886e-05
-0.000135031
-0.000213681
-0.000307046
-0.000388406
-0.000461385
-0.00048335
-0.000457271
-0.000445987
0.00341483
0.00373558
0.00438011
0.00502415
0.00561372
0.0061568
0.00650899
0.00682708
0.00690777
0.0069792
0.00684043
0.0066929
0.00637491
0.0060529
0.00561544
0.00520366
0.00476466
0.00438555
0.00406359
0.00382855
0.00368732
0.00366712
0.00374496
0.0039271
0.00416264
0.00443185
0.00465382
0.00490842
0.00510396
0.00531196
0.00546919
0.00561768
0.00572702
0.00580705
0.00586247
0.00587022
0.00586995
0.00580711
0.00575361
0.00562684
0.00552614
0.00534594
0.00520657
0.00498568
0.00481735
0.00456918
0.00438166
0.00411892
0.00392117
0.00365492
0.00345453
0.00319378
0.00299687
0.00274844
0.00255966
0.00232841
0.0021512
0.00194038
0.00177722
0.00158878
0.0014414
0.0012763
0.00114582
0.00100422
0.000891237
0.000772588
0.00067713
0.000580252
0.000501784
0.000424907
0.000362311
0.00030317
0.00025482
0.000210802
0.000174695
0.000142985
0.000116921
9.45632e-05
7.63597e-05
6.01023e-05
4.6281e-05
3.4155e-05
2.24796e-05
1.46009e-05
6.56233e-06
2.6022e-06
4.03767e-07
-5.61571e-06
-7.15474e-06
-2.92688e-05
-4.59415e-05
-0.000101921
-0.000155004
-0.00024984
-0.000342222
-0.000435076
-0.000507073
-0.000528662
-0.000502343
-0.000487477
0.00350099
0.00382363
0.00439526
0.00504531
0.0056439
0.0062095
0.00660976
0.00696082
0.00710657
0.00721185
0.00713418
0.00701327
0.00674649
0.00644018
0.00603982
0.00563338
0.00521195
0.00483278
0.00451373
0.00428004
0.00414298
0.00413114
0.00422057
0.00441733
0.00467444
0.00495911
0.00520516
0.00547342
0.00569004
0.00590829
0.00607841
0.00623302
0.00634622
0.00642783
0.0064778
0.0064825
0.00646782
0.00639753
0.00632159
0.00618354
0.00605382
0.00585928
0.00568604
0.0054487
0.00524355
0.00497775
0.00475232
0.00447163
0.00423653
0.00395278
0.00371697
0.00343973
0.00321034
0.00294684
0.0027292
0.00248457
0.00228247
0.00206007
0.00187608
0.00167787
0.00151358
0.00134047
0.00119671
0.00104873
0.000925685
0.000802116
0.000699334
0.000598796
0.000515237
0.000435745
0.000369795
0.000308869
0.000258452
0.00021328
0.000175988
0.000143547
0.000116895
9.38759e-05
7.49972e-05
5.81458e-05
4.39642e-05
3.15117e-05
2.04685e-05
1.27171e-05
5.68368e-06
2.04388e-06
-1.37626e-06
-7.82221e-06
-1.53153e-05
-3.98107e-05
-6.73289e-05
-0.000128137
-0.000193544
-0.000294188
-0.000390576
-0.000486197
-0.000553819
-0.000574496
-0.000558471
-0.000542481
0.00354734
0.00386985
0.00440825
0.00505842
0.00569257
0.00626003
0.00673298
0.00708871
0.0073347
0.00744724
0.0074693
0.0073575
0.0071684
0.00687246
0.00651959
0.00612382
0.00572153
0.00535182
0.00503586
0.00480908
0.00468234
0.00467435
0.00478628
0.00498364
0.0052768
0.0055613
0.00585314
0.00612124
0.00637506
0.00659318
0.00678631
0.00694083
0.00706124
0.00714281
0.00718367
0.00718837
0.00714885
0.0070786
0.00696377
0.0068258
0.00664569
0.00645127
0.00621929
0.0059821
0.00571322
0.00544758
0.0051567
0.00487618
0.00457678
0.00429321
0.00399659
0.00371952
0.00343453
0.00317119
0.00290426
0.00265978
0.00241526
0.00219299
0.00197357
0.00177549
0.00158249
0.00140949
0.00124326
0.00109537
0.000955363
0.000831867
0.000716828
0.00061635
0.000524371
0.000444926
0.000373543
0.000312653
0.000259006
0.00021386
0.000174851
0.000142429
0.000114959
9.1957e-05
7.19919e-05
5.5171e-05
4.03922e-05
2.79887e-05
1.80024e-05
1.02948e-05
5.14804e-06
1.51711e-06
-2.97694e-06
-9.39191e-06
-2.55399e-05
-4.98005e-05
-9.50856e-05
-0.000155185
-0.000241992
-0.00034127
-0.000453782
-0.00054783
-0.000622896
-0.00064281
-0.000618616
-0.000602567
0.00342686
0.00374952
0.00441543
0.00506925
0.00578116
0.00635332
0.00693443
0.00729622
0.00765182
0.00777432
0.00789451
0.00779424
0.00767156
0.00738794
0.00705164
0.00666772
0.00624265
0.00588263
0.00553779
0.00531773
0.00518344
0.00517908
0.00534405
0.00554199
0.00592507
0.0062095
0.00656627
0.00683428
0.00713283
0.00735086
0.00757236
0.0077268
0.00785705
0.00793853
0.00796987
0.0079745
0.00790674
0.00783644
0.00767677
0.00753876
0.00730043
0.007106
0.00680634
0.00656914
0.00622725
0.00596162
0.00559629
0.0053158
0.00494383
0.00466029
0.00429558
0.00401855
0.00367177
0.00340848
0.00308715
0.00284273
0.00255169
0.00232948
0.00207144
0.00187342
0.00164935
0.00147641
0.00128605
0.00113821
0.000980238
0.0008568
0.000729053
0.000628626
0.000528244
0.000448844
0.000372407
0.000311554
0.000255301
0.000210185
0.000170256
0.000137857
0.00011037
8.73885e-05
6.71522e-05
5.03743e-05
3.51362e-05
2.2802e-05
1.36127e-05
5.98219e-06
3.64228e-06
4.11529e-08
-2.1866e-06
-8.59598e-06
-2.8291e-05
-5.25103e-05
-0.00011147
-0.000171197
-0.000285289
-0.000382974
-0.000533601
-0.000626639
-0.000717466
-0.000735748
-0.00067639
-0.00065974
0.00341368
0.00373861
0.00440408
0.00508035
0.00579303
0.00642957
0.00701432
0.00748047
0.00784556
0.00808862
0.0082197
0.0082354
0.008125
0.00793334
0.00761017
0.00728284
0.00686884
0.00653473
0.00619873
0.00599468
0.00586766
0.00589414
0.00606842
0.00632072
0.00671248
0.00705649
0.00741301
0.00772695
0.00802529
0.00827045
0.00849179
0.00865267
0.00878283
0.00884946
0.00888077
0.00885003
0.00878232
0.00865827
0.00849872
0.00829189
0.00805372
0.00777948
0.00748003
0.00715651
0.00681486
0.00646083
0.00609576
0.00572877
0.00535706
0.00499222
0.00462776
0.00427706
0.00393052
0.00360275
0.00328164
0.00298268
0.00269185
0.00242512
0.00216725
0.00193425
0.00171034
0.00151107
0.00132084
0.00115422
0.000996352
0.000860378
0.00073272
0.000624704
0.000524392
0.000441094
0.00036471
0.000302519
0.000246305
0.000201456
0.000161555
0.000130207
0.000102869
8.09661e-05
6.07784e-05
4.51119e-05
2.98974e-05
1.93007e-05
1.01977e-05
4.11062e-06
1.8974e-06
-3.82606e-06
-6.00379e-06
-2.25479e-05
-4.20471e-05
-8.6169e-05
-0.000144595
-0.000231505
-0.000344735
-0.000469795
-0.000618047
-0.000725005
-0.000813746
-0.000825085
-0.000765266
-0.000739905
0.00339944
0.00372682
0.00439181
0.00509233
0.00580585
0.00651191
0.00710059
0.00767944
0.00805183
0.00842776
0.0085689
0.00871179
0.00861374
0.00852228
0.008213
0.00794751
0.00754724
0.00724297
0.00691846
0.00673522
0.00661597
0.00668016
0.00685752
0.00717125
0.00756276
0.00797111
0.00832736
0.00869088
0.008989
0.00926346
0.00948463
0.00965247
0.00978253
0.00983311
0.0098644
0.00979546
0.0097278
0.00954573
0.00938629
0.00910514
0.00886715
0.00850673
0.00820751
0.00779078
0.00744939
0.0069999
0.0066351
0.00617472
0.00580329
0.00535065
0.00498647
0.00455621
0.00420993
0.00381253
0.00349166
0.00313382
0.00284321
0.0025284
0.00227072
0.00199994
0.00177619
0.0015485
0.00135842
0.0011715
0.00101375
0.000864241
0.000736679
0.000620468
0.000520232
0.000432725
0.000356399
0.000292762
0.000236591
0.00019203
0.00015216
0.000121947
9.46298e-05
7.39467e-05
5.38021e-05
3.9424e-05
2.4273e-05
1.56262e-05
6.57849e-06
2.187e-06
1.1323e-08
-8.04582e-06
-1.01258e-05
-3.77601e-05
-5.69014e-05
-0.000122963
-0.00018047
-0.000297484
-0.000408929
-0.000563548
-0.000709235
-0.000831226
-0.000917713
-0.000921407
-0.000861237
-0.00082647
0.00351191
0.00383917
0.004378
0.00507964
0.00579123
0.00651025
0.00715657
0.0077611
0.00824176
0.00865103
0.0089205
0.00909772
0.00913299
0.0090724
0.00889121
0.00865096
0.00835443
0.00807031
0.0078163
0.00765055
0.00758541
0.00766689
0.00787735
0.00820629
0.00862193
0.00904235
0.00943237
0.00980516
0.0101269
0.0104068
0.0106307
0.0107997
0.0109115
0.010959
0.010952
0.0108758
0.010752
0.0105589
0.0103285
0.0100333
0.00971326
0.00933654
0.00894831
0.00851398
0.00808087
0.00761337
0.00715818
0.00668018
0.00622322
0.00575404
0.00531196
0.00486673
0.00445214
0.00404165
0.00366316
0.00329426
0.00295697