/*--------------------------------*- C++ -*----------------------------------*\
| =========                 |                                                 |
| \\      /  F ield         | OpenFOAM: The Open Source CFD Toolbox           |
|  \\    /   O peration     | Version:  v2106                                 |
|   \\  /    A nd           | Website:  www.openfoam.com                      |
|    \\/     M anipulation  |                                                 |
\*---------------------------------------------------------------------------*/
FoamFile
{
    version     2.0;
    format      ascii;
    arch        "LSB;label=32;scalar=64";
    class       volScalarField;
    location    "0";
    object      expGpCoeffs9;
}
// * * * * * * * * * * * * * * * * * * * * * * * * * * * * * * * * * * * * * //

dimensions      [0 0 0 0 0 0 0];

internalField   nonuniform List<scalar> 
8000
(
0.132669
0.134867
0.137723
0.140406
0.140071
0.136627
0.128493
0.11603
0.0997712
0.0798223
0.0578843
0.0341142
0.0102177
-0.013641
-0.0358479
-0.0564707
-0.0743733
-0.0896918
-0.10242
-0.112572
-0.121081
-0.127895
-0.133972
-0.13925
-0.144072
-0.14841
-0.152179
-0.155368
-0.157857
-0.159637
-0.160617
-0.160789
-0.160084
-0.158498
-0.155988
-0.152553
-0.148179
-0.142867
-0.136637
-0.129492
-0.121482
-0.112615
-0.102972
-0.0925623
-0.0814965
-0.0697881
-0.0575731
-0.0448668
-0.0318277
-0.018473
-0.00497681
0.00864121
0.0221975
0.035673
0.0488824
0.0618069
0.074269
0.0862507
0.0975909
0.108274
0.118166
0.127251
0.135426
0.142683
0.148955
0.154235
0.158497
0.161739
0.163974
0.165203
0.165476
0.164799
0.163252
0.160845
0.157698
0.153827
0.149362
0.144343
0.138539
0.13201
0.123899
0.114254
0.102159
0.0876013
0.0705151
0.0507645
0.0293508
0.0061962
-0.0172393
-0.0408023
-0.0629175
-0.0834335
-0.100645
-0.114475
-0.124133
-0.12926
-0.131145
-0.129791
-0.127864
-0.126173
0.132492
0.13469
0.13786
0.140544
0.140424
0.136989
0.128871
0.116415
0.100019
0.0800701
0.0579803
0.0342049
0.0101693
-0.0136977
-0.0360224
-0.0566543
-0.074598
-0.089923
-0.102596
-0.112751
-0.121168
-0.127982
-0.134008
-0.139286
-0.144113
-0.14845
-0.152232
-0.15542
-0.157918
-0.159698
-0.160685
-0.160857
-0.160157
-0.158572
-0.156064
-0.152629
-0.148254
-0.142943
-0.136709
-0.129565
-0.121548
-0.112682
-0.103029
-0.0926208
-0.0815426
-0.0698357
-0.0576059
-0.0449013
-0.0318455
-0.0184925
-0.0049785
0.00863777
0.0222124
0.0356862
0.0489136
0.0618365
0.0743154
0.0862956
0.0976507
0.108333
0.118236
0.12732
0.135504
0.14276
0.149037
0.154316
0.15858
0.161821
0.164053
0.165283
0.16555
0.164873
0.163318
0.16091
0.157751
0.153879
0.149402
0.144383
0.138619
0.132091
0.124066
0.114419
0.102381
0.0878174
0.0706993
0.0509399
0.0294214
0.00625835
-0.0173029
-0.0408719
-0.0631294
-0.083647
-0.101003
-0.114827
-0.1245
-0.129618
-0.131309
-0.129952
-0.127727
-0.126037
0.132301
0.134498
0.138006
0.140693
0.140805
0.13738
0.129279
0.116831
0.100287
0.0803377
0.058084
0.0343029
0.010117
-0.0137589
-0.0362108
-0.0568526
-0.0748407
-0.0901726
-0.102787
-0.112943
-0.121262
-0.128076
-0.134046
-0.139324
-0.144157
-0.148493
-0.152289
-0.155476
-0.157985
-0.159764
-0.160759
-0.160931
-0.160236
-0.158651
-0.156145
-0.152711
-0.148335
-0.143025
-0.136787
-0.129644
-0.121619
-0.112755
-0.103091
-0.0926841
-0.0815924
-0.0698872
-0.0576413
-0.0449385
-0.0318648
-0.0185136
-0.00498034
0.00863406
0.0222285
0.0357005
0.0489474
0.0618684
0.0743656
0.086344
0.0977152
0.108396
0.118312
0.127395
0.135589
0.142844
0.149126
0.154404
0.158669
0.16191
0.16414
0.165369
0.16563
0.164953
0.163388
0.160981
0.157807
0.153936
0.149445
0.144427
0.138706
0.132178
0.124247
0.114597
0.102621
0.0880507
0.0708983
0.0511292
0.0294976
0.00632546
-0.0173716
-0.040947
-0.0633583
-0.0838776
-0.101388
-0.115206
-0.124896
-0.130004
-0.131485
-0.130127
-0.12758
-0.12589
0.132094
0.134291
0.138165
0.140854
0.141217
0.137802
0.12972
0.117281
0.100576
0.0806266
0.0581959
0.0344087
0.0100606
-0.013825
-0.0364143
-0.0570667
-0.0751028
-0.0904421
-0.102992
-0.113152
-0.121363
-0.128178
-0.134088
-0.139365
-0.144204
-0.14854
-0.15235
-0.155537
-0.158056
-0.159835
-0.160839
-0.161011
-0.160322
-0.158737
-0.156234
-0.1528
-0.148423
-0.143114
-0.136871
-0.129729
-0.121696
-0.112833
-0.103158
-0.0927524
-0.0816462
-0.0699427
-0.0576796
-0.0449786
-0.0318856
-0.0185364
-0.00498232
0.00863005
0.0222459
0.0357159
0.0489838
0.0619029
0.0744197
0.0863964
0.0977849
0.108464
0.118394
0.127476
0.13568
0.142934
0.149221
0.154499
0.158766
0.162006
0.164233
0.165462
0.165716
0.165039
0.163465
0.161058
0.157868
0.153998
0.149491
0.144474
0.1388
0.132272
0.124442
0.11479
0.10288
0.0883027
0.0711131
0.0513336
0.0295799
0.00639793
-0.0174458
-0.0410281
-0.0636054
-0.0841266
-0.101805
-0.115616
-0.125323
-0.130421
-0.131676
-0.130315
-0.127421
-0.125731
0.131871
0.134068
0.138336
0.140994
0.141661
0.138258
0.130197
0.117766
0.100889
0.0809386
0.0583168
0.034523
0.00999968
-0.0138963
-0.0366341
-0.057298
-0.0753858
-0.0907331
-0.103214
-0.113377
-0.121473
-0.128287
-0.134133
-0.139409
-0.144256
-0.148591
-0.152416
-0.155603
-0.158133
-0.159912
-0.160925
-0.161097
-0.160414
-0.158829
-0.156329
-0.152895
-0.148517
-0.143209
-0.136961
-0.12982
-0.121779
-0.112917
-0.10323
-0.0928262
-0.0817043
-0.0700026
-0.057721
-0.045022
-0.031908
-0.018561
-0.00498446
0.00862572
0.0222647
0.0357325
0.0490231
0.0619401
0.0744781
0.0864529
0.0978601
0.108537
0.118483
0.127563
0.135778
0.143031
0.149325
0.154602
0.15887
0.16211
0.164334
0.165562
0.165809
0.165132
0.163547
0.161141
0.157934
0.154064
0.149541
0.144525
0.138902
0.132373
0.124653
0.114998
0.10316
0.0885747
0.0713451
0.0515544
0.0296687
0.00647619
-0.0175259
-0.0411156
-0.0638723
-0.0843955
-0.102255
-0.116059
-0.125785
-0.130872
-0.131857
-0.130519
-0.127249
-0.12556
0.131618
0.133829
0.138173
0.140939
0.141943
0.138603
0.130685
0.118337
0.101232
0.0813165
0.0584828
0.0347466
0.0100091
-0.0138146
-0.036844
-0.0575157
-0.0756914
-0.0910474
-0.103454
-0.11362
-0.121591
-0.128406
-0.134182
-0.139457
-0.144287
-0.148629
-0.152469
-0.155662
-0.158203
-0.159987
-0.161009
-0.161185
-0.160508
-0.158927
-0.15643
-0.152999
-0.14862
-0.143314
-0.137062
-0.129922
-0.121873
-0.113012
-0.103312
-0.0929088
-0.0817718
-0.0700696
-0.0577701
-0.0450702
-0.0319362
-0.0185879
-0.00498994
0.00862145
0.0222825
0.0357513
0.0490637
0.0619814
0.0745397
0.0865146
0.0979396
0.108617
0.118577
0.127655
0.135881
0.143132
0.149432
0.154707
0.158976
0.162213
0.164434
0.165659
0.165899
0.165218
0.163622
0.161212
0.157989
0.154114
0.149595
0.144579
0.139011
0.132483
0.124881
0.115223
0.103462
0.0888685
0.0715652
0.0517662
0.0296072
0.00648435
-0.017715
-0.0412482
-0.0642059
-0.0846937
-0.102816
-0.116525
-0.126195
-0.131193
-0.131895
-0.130431
-0.127076
-0.12537
0.131319
0.133576
0.137918
0.140879
0.141882
0.138912
0.130999
0.119082
0.10199
0.0824245
0.0596115
0.0360561
0.0113426
-0.0125025
-0.0355084
-0.0563857
-0.0746031
-0.0903372
-0.102713
-0.113234
-0.121154
-0.128187
-0.133916
-0.139301
-0.144105
-0.148519
-0.152359
-0.155612
-0.158154
-0.159993
-0.161014
-0.161238
-0.160561
-0.159018
-0.15652
-0.153117
-0.148738
-0.143447
-0.137196
-0.13006
-0.122012
-0.113143
-0.103446
-0.0930249
-0.08189
-0.0701626
-0.0578654
-0.0451346
-0.032003
-0.0186208
-0.00502534
0.00862055
0.022279
0.0357802
0.04909
0.0620353
0.0745913
0.086587
0.0980099
0.108699
0.118657
0.127739
0.135963
0.143207
0.149505
0.154763
0.159031
0.162242
0.164462
0.165652
0.165892
0.165171
0.163576
0.161121
0.157898
0.153968
0.149472
0.144361
0.138833
0.1321
0.124546
0.114545
0.102815
0.0878439
0.0705007
0.0504777
0.0283415
0.00516427
-0.0190112
-0.0424066
-0.0653428
-0.0855235
-0.103631
-0.116937
-0.126599
-0.131234
-0.131936
-0.130268
-0.126914
-0.125155
0.130997
0.133303
0.137643
0.140815
0.141817
0.139245
0.131338
0.119886
0.102809
0.083621
0.0608303
0.0374702
0.0127825
-0.0110856
-0.0340661
-0.0551656
-0.073362
-0.0894364
-0.101798
-0.112663
-0.120575
-0.127858
-0.133584
-0.139105
-0.143908
-0.148401
-0.15224
-0.155559
-0.1581
-0.159999
-0.16102
-0.161295
-0.160618
-0.159115
-0.156618
-0.153243
-0.148866
-0.143591
-0.137341
-0.130209
-0.122162
-0.113285
-0.10359
-0.0931502
-0.0820177
-0.070263
-0.0579683
-0.0452041
-0.0320753
-0.0186562
-0.00506356
0.00861958
0.0222753
0.0358113
0.0491184
0.0620936
0.074647
0.0866652
0.0980858
0.108788
0.118745
0.127829
0.136051
0.143287
0.149585
0.154823
0.159091
0.162273
0.164492
0.165646
0.165886
0.16512
0.163525
0.161022
0.1578
0.153811
0.149316
0.144087
0.138561
0.131593
0.124045
0.113708
0.10199
0.0866747
0.0693512
0.0490865
0.0269747
0.00373879
-0.0204109
-0.0436574
-0.0665705
-0.0864195
-0.10451
-0.117382
-0.127036
-0.131279
-0.13198
-0.130091
-0.126739
-0.124923
0.130648
0.133008
0.137346
0.140745
0.141746
0.139604
0.131703
0.120754
0.103694
0.084913
0.0621465
0.0389971
0.0143374
-0.0095555
-0.0325087
-0.053848
-0.0720217
-0.0884637
-0.100811
-0.112045
-0.11995
-0.127502
-0.133225
-0.138893
-0.143696
-0.148274
-0.152112
-0.155502
-0.158042
-0.160006
-0.161027
-0.161356
-0.16068
-0.15922
-0.156724
-0.15338
-0.149004
-0.143746
-0.137498
-0.130369
-0.122325
-0.113439
-0.103745
-0.0932856
-0.0821555
-0.0703714
-0.0580795
-0.0452792
-0.0321532
-0.0186945
-0.00510482
0.00861853
0.0222712
0.0358449
0.0491491
0.0621565
0.0747071
0.0867496
0.0981677
0.108885
0.118839
0.127926
0.136147
0.143374
0.14967
0.154889
0.159155
0.162306
0.164525
0.165638
0.165878
0.165066
0.163471
0.160915
0.157694
0.153641
0.149146
0.143791
0.138267
0.131045
0.123504
0.112804
0.1011
0.0854121
0.06811
0.0475841
0.0254987
0.0021995
-0.0219224
-0.0450082
-0.0678962
-0.0873871
-0.10546
-0.117862
-0.127508
-0.131328
-0.132027
-0.129901
-0.12655
-0.124672
0.130272
0.13269
0.137025
0.14067
0.14167
0.139993
0.132099
0.121692
0.104648
0.0863081
0.0635677
0.040646
0.0160165
-0.00790329
-0.0308269
-0.0524253
-0.0705744
-0.0874133
-0.0997442
-0.111378
-0.119276
-0.127118
-0.132838
-0.138665
-0.143466
-0.148136
-0.151973
-0.15544
-0.15798
-0.160013
-0.161033
-0.161423
-0.160746
-0.159334
-0.156839
-0.153528
-0.149153
-0.143914
-0.137667
-0.130543
-0.1225
-0.113605
-0.103913
-0.0934318
-0.0823043
-0.0704885
-0.0581994
-0.0453603
-0.0322374
-0.0187359
-0.00514939
0.00861739
0.0222669
0.0358812
0.0491823
0.0622244
0.0747721
0.0868408
0.0982562
0.108989
0.11894
0.128031
0.13625
0.143468
0.149763
0.154959
0.159225
0.162342
0.164561
0.165631
0.165871
0.165007
0.163412
0.1608
0.15758
0.153457
0.148964
0.143471
0.13795
0.130454
0.12292
0.111828
0.100138
0.0840487
0.0667696
0.0459618
0.0239049
0.000537314
-0.0235545
-0.0464668
-0.0693277
-0.0884319
-0.106485
-0.118381
-0.128017
-0.13138
-0.132079
-0.129695
-0.126346
-0.124402
0.129865
0.132346
0.136678
0.140589
0.141587
0.140412
0.132525
0.122704
0.10568
0.0878146
0.0651024
0.0424265
0.0178296
-0.00611916
-0.0290109
-0.0508889
-0.0690116
-0.0862791
-0.0985925
-0.110659
-0.118547
-0.126703
-0.13242
-0.138418
-0.143218
-0.147987
-0.151823
-0.155374
-0.157913
-0.160021
-0.161041
-0.161494
-0.160818
-0.159457
-0.156962
-0.153687
-0.149313
-0.144095
-0.137849
-0.13073
-0.122689
-0.113783
-0.104095
-0.0935897
-0.082465
-0.0706149
-0.058329
-0.0454479
-0.0323283
-0.0187805
-0.00519751
0.00861617
0.0222622
0.0359204
0.0492181
0.0622978
0.0748422
0.0869393
0.0983517
0.109101
0.11905
0.128145
0.136362
0.143569
0.149862
0.155035
0.1593
0.162381
0.164599
0.165622
0.165862
0.164943
0.163349
0.160676
0.157456
0.153258
0.148766
0.143125
0.137607
0.129815
0.122289
0.110774
0.0991002
0.0825764
0.0653222
0.0442099
0.0221839
-0.00125759
-0.025317
-0.0480419
-0.0708736
-0.0895602
-0.107592
-0.118941
-0.128567
-0.131436
-0.132134
-0.129473
-0.126125
-0.12411
0.129426
0.131975
0.136304
0.140502
0.141498
0.140865
0.132986
0.123797
0.106793
0.0894415
0.0667596
0.0443492
0.0197875
-0.00419259
-0.0270499
-0.0492299
-0.0673239
-0.0850543
-0.0973488
-0.109881
-0.117761
-0.126255
-0.131969
-0.138152
-0.142951
-0.147826
-0.151661
-0.155302
-0.15784
-0.160029
-0.161049
-0.161572
-0.160896
-0.15959
-0.157095
-0.15386
-0.149487
-0.14429
-0.138046
-0.130932
-0.122894
-0.113977
-0.104291
-0.0937602
-0.0826386
-0.0707514
-0.0584689
-0.0455424
-0.0324265
-0.0188287
-0.00524948
0.00861484
0.0222571
0.0359627
0.0492567
0.062377
0.074918
0.0870456
0.0984549
0.109222
0.119169
0.128267
0.136482
0.143679
0.14997
0.155118
0.159381
0.162423
0.164641
0.165613
0.165853
0.164874
0.163281
0.160542
0.157323
0.153044
0.148553
0.142752
0.137237
0.129126
0.121607
0.109636
0.0979791
0.0809866
0.0637593
0.0423182
0.0203255
-0.00319579
-0.0272201
-0.0497427
-0.0725428
-0.0907785
-0.108788
-0.119545
-0.12916
-0.131498
-0.132194
-0.129233
-0.125888
-0.123794
0.128959
0.131544
0.135516
0.13986
0.141169
0.140894
0.133623
0.124845
0.108388
0.091409
0.0691971
0.0469531
0.0227051
-0.00134733
-0.024251
-0.0466315
-0.0650758
-0.0830695
-0.0957765
-0.10861
-0.116793
-0.125549
-0.131396
-0.137734
-0.142566
-0.147515
-0.151416
-0.155118
-0.157714
-0.159959
-0.161031
-0.161601
-0.16097
-0.159702
-0.157242
-0.154034
-0.149686
-0.144506
-0.138277
-0.131166
-0.123133
-0.114209
-0.104519
-0.0939722
-0.082839
-0.0709275
-0.0586278
-0.0456712
-0.0325349
-0.0189039
-0.0053032
0.00859476
0.022257
0.035994
0.0493045
0.0624514
0.0750035
0.087151
0.0985646
0.109343
0.119286
0.128387
0.13659
0.143778
0.150051
0.15518
0.159416
0.162431
0.164616
0.165553
0.165755
0.164735
0.1631
0.160316
0.157052
0.152718
0.14821
0.142275
0.13664
0.12828
0.120475
0.108201
0.0961424
0.0788755
0.0612884
0.0396261
0.01755
-0.00607822
-0.0298384
-0.0522412
-0.074618
-0.092528
-0.110028
-0.120416
-0.129419
-0.131429
-0.131777
-0.128683
-0.125619
-0.123484
0.128461
0.131045
0.134644
0.138975
0.140712
0.140424
0.134485
0.125727
0.110951
0.094035
0.0731103
0.0509569
0.0273287
0.00337761
-0.0196217
-0.0419078
-0.061144
-0.0790686
-0.0929985
-0.105795
-0.115146
-0.123888
-0.130474
-0.136808
-0.141967
-0.146915
-0.151013
-0.154714
-0.157486
-0.15973
-0.160959
-0.161529
-0.16103
-0.159763
-0.157408
-0.1542
-0.149926
-0.144747
-0.138559
-0.131451
-0.123428
-0.114507
-0.104799
-0.0942553
-0.0830807
-0.071173
-0.0588144
-0.0458621
-0.0326563
-0.0190297
-0.00535658
0.0085369
0.0222673
0.036
0.0493676
0.0625104
0.075103
0.0872466
0.0986796
0.109455
0.119393
0.128491
0.136664
0.14385
0.150067
0.155195
0.159353
0.162368
0.164454
0.165391
0.165478
0.164459
0.162699
0.159916
0.156515
0.152182
0.147426
0.141493
0.1352
0.126852
0.117924
0.105684
0.0924013
0.0751989
0.0567587
0.0351869
0.0128947
-0.0106337
-0.0339377
-0.0562475
-0.0775072
-0.0953476
-0.111271
-0.12163
-0.129281
-0.131296
-0.131158
-0.128073
-0.125316
-0.123182
0.127852
0.130434
0.133836
0.138154
0.140476
0.140168
0.135416
0.126678
0.113719
0.0968706
0.077336
0.0552803
0.0323216
0.0084798
-0.0146227
-0.0368069
-0.0568983
-0.0747482
-0.0899988
-0.102755
-0.113367
-0.122094
-0.129477
-0.135808
-0.14132
-0.146266
-0.150578
-0.154277
-0.157239
-0.159483
-0.160881
-0.161451
-0.161096
-0.159829
-0.157586
-0.15438
-0.150184
-0.145007
-0.138864
-0.131758
-0.123746
-0.114828
-0.105101
-0.094561
-0.0833416
-0.0714381
-0.059016
-0.0460681
-0.0327875
-0.0191656
-0.00541422
0.00847443
0.0222785
0.0360063
0.0494358
0.062574
0.0752105
0.0873498
0.0988038
0.109575
0.119509
0.128603
0.136744
0.143928
0.150086
0.155212
0.159285
0.162298
0.164279
0.165215
0.16518
0.16416
0.162267
0.159485
0.155935
0.151604
0.146579
0.14065
0.133645
0.12531
0.115169
0.102966
0.0883615
0.0712289
0.0518674
0.0303932
0.0078677
-0.015553
-0.0383643
-0.0605736
-0.0806271
-0.0983923
-0.112614
-0.122941
-0.129394
-0.131421
-0.130679
-0.127604
-0.12493
-0.122797
0.12605
0.12863
0.133209
0.137517
0.141695
0.141421
0.13861
0.129964
0.118247
0.101521
0.0827398
0.0608137
0.0378
0.0140786
-0.00987865
-0.0319688
-0.0533512
-0.0711428
-0.0876981
-0.100426
-0.112052
-0.120768
-0.128725
-0.135052
-0.140881
-0.145825
-0.150408
-0.154106
-0.157328
-0.15957
-0.161196
-0.161766
-0.161595
-0.160329
-0.158223
-0.155018
-0.150907
-0.145732
-0.139619
-0.132516
-0.124481
-0.115566
-0.105767
-0.0952313
-0.0838981
-0.071999
-0.0594298
-0.0464868
-0.0330368
-0.0194201
-0.00548914
0.00839429
0.0223756
0.0360983
0.0496901
0.0628234
0.0755959
0.0877307
0.0992849
0.110052
0.120042
0.129134
0.137283
0.144464
0.15058
0.155704
0.159689
0.162701
0.164548
0.165484
0.16528
0.164261
0.16217
0.159389
0.155635
0.151305
0.146016
0.140089
0.132555
0.124229
0.113108
0.100929
0.0850354
0.0679562
0.0472871
0.0259015
0.00245142
-0.0208532
-0.0438515
-0.0659328
-0.0854073
-0.103047
-0.116203
-0.126431
-0.131107
-0.133087
-0.130517
-0.127444
-0.123568
-0.121437
0.124105
0.126685
0.13229
0.136704
0.142947
0.142624
0.142075
0.133532
0.123278
0.106687
0.0886391
0.066854
0.0437213
0.0201299
-0.00482153
-0.0268108
-0.0496882
-0.0674173
-0.0854086
-0.098106
-0.110774
-0.119478
-0.127973
-0.134297
-0.140421
-0.145363
-0.150241
-0.153938
-0.157442
-0.159684
-0.161557
-0.162127
-0.162158
-0.160892
-0.158936
-0.155732
-0.151712
-0.146539
-0.140457
-0.133357
-0.125295
-0.116384
-0.106505
-0.0959735
-0.0845138
-0.0726195
-0.0598873
-0.0469496
-0.0333119
-0.0197007
-0.00557073
0.00830707
0.022485
0.0362021
0.0499745
0.0631024
0.0760267
0.0881565
0.0998229
0.110586
0.120641
0.129728
0.137889
0.145067
0.15114
0.156262
0.16015
0.163161
0.164863
0.165799
0.16541
0.164391
0.162086
0.159306
0.155328
0.151
0.145473
0.13955
0.131515
0.123199
0.111068
0.0989167
0.0816081
0.064586
0.0424106
0.02112
-0.00339655
-0.0265758
-0.04983
-0.0717721
-0.090696
-0.108198
-0.120098
-0.130214
-0.132797
-0.134821
-0.130188
-0.127002
-0.122098
-0.119966
0.122015
0.124758
0.13035
0.135564
0.141785
0.14311
0.142801
0.136105
0.126207
0.111278
0.0934168
0.0727484
0.0497332
0.0265029
0.00156579
-0.0208383
-0.0438351
-0.0625324
-0.0806872
-0.0944855
-0.107294
-0.116823
-0.125342
-0.132109
-0.138117
-0.14335
-0.148249
-0.152209
-0.155734
-0.158234
-0.160125
-0.160942
-0.160989
-0.159951
-0.158007
-0.155008
-0.150997
-0.146002
-0.139925
-0.132974
-0.124914
-0.116126
-0.106244
-0.0958115
-0.0843466
-0.0725323
-0.0597927
-0.0469227
-0.033276
-0.0197275
-0.00558783
0.00822477
0.0224122
0.0360545
0.0498353
0.0628727
0.0758036
0.0878226
0.0994929
0.110122
0.120178
0.129107
0.137265
0.144263
0.150331
0.155254
0.159132
0.16193
0.163621
0.164336
0.163933
0.162695
0.160374
0.157383
0.153389
0.148831
0.143433
0.137125
0.129073
0.119973
0.107707
0.0944621
0.0769905
0.0589591
0.0366565
0.0148509
-0.00966612
-0.0326345
-0.0557849
-0.076781
-0.0955336
-0.11152
-0.123083
-0.131427
-0.133768
-0.134132
-0.12951
-0.12546
-0.120566
-0.118235
0.119759
0.122677
0.128255
0.134333
0.14053
0.143636
0.143344
0.138876
0.129052
0.116135
0.0983909
0.079058
0.0561843
0.0333728
0.00857977
-0.0143403
-0.0372141
-0.0570895
-0.075159
-0.0903032
-0.103065
-0.113629
-0.122131
-0.129472
-0.135477
-0.14105
-0.145947
-0.150212
-0.153735
-0.156536
-0.158427
-0.159531
-0.159578
-0.158806
-0.156862
-0.154101
-0.150092
-0.145303
-0.13923
-0.132453
-0.124397
-0.115751
-0.105874
-0.0955558
-0.0840963
-0.0723748
-0.0596412
-0.0468496
-0.0332093
-0.0197333
-0.00560034
0.00813688
0.0223176
0.0358734
0.0496476
0.0625803
0.075505
0.0873955
0.0990603
0.109534
0.119585
0.128331
0.136486
0.143274
0.149338
0.15403
0.157907
0.160457
0.162147
0.162606
0.162203
0.160709
0.158389
0.155153
0.15116
0.146335
0.14094
0.134131
0.126096
0.116015
0.103793
0.0892158
0.0718252
0.0525679
0.030384
0.00794213
-0.0164329
-0.039164
-0.0621711
-0.0820393
-0.100667
-0.114821
-0.126298
-0.132506
-0.134816
-0.133387
-0.128779
-0.123795
-0.118912
-0.116365
0.117322
0.12043
0.125993
0.133003
0.139175
0.144204
0.14393
0.141868
0.132124
0.121379
0.103762
0.0858714
0.0631504
0.0407912
0.0161537
-0.00732353
-0.0300645
-0.0512119
-0.0691894
-0.085787
-0.0984984
-0.11018
-0.118664
-0.126624
-0.132626
-0.138566
-0.143461
-0.148055
-0.151577
-0.154703
-0.156592
-0.158007
-0.158054
-0.157568
-0.155626
-0.153122
-0.149115
-0.14455
-0.138479
-0.13189
-0.123838
-0.115346
-0.105474
-0.0952797
-0.0838261
-0.0722047
-0.0594776
-0.0467706
-0.0331373
-0.0197396
-0.00561386
0.00804199
0.0222154
0.0356778
0.049445
0.0622644
0.0751825
0.0869343
0.0985932
0.108899
0.118945
0.127493
0.135643
0.142206
0.148267
0.152708
0.156583
0.158865
0.160555
0.160737
0.160335
0.158565
0.156246
0.152744
0.148754
0.14364
0.138247
0.130899
0.122881
0.111742
0.0995663
0.0835506
0.0662474
0.0456663
0.0236107
0.000481701
-0.02374
-0.0462149
-0.0690672
-0.0877174
-0.106211
-0.118386
-0.12977
-0.133672
-0.135949
-0.132583
-0.127989
-0.121997
-0.117126
-0.114346
0.114848
0.118012
0.123103
0.130287
0.136785
0.142499
0.14353
0.142459
0.134653
0.124856
0.109056
0.0918395
0.070541
0.0484684
0.0246618
0.0010612
-0.0216369
-0.043216
-0.0618217
-0.0789667
-0.0925106
-0.104654
-0.11375
-0.121993
-0.128241
-0.134322
-0.139439
-0.144161
-0.147888
-0.15114
-0.153252
-0.154786
-0.15507
-0.154697
-0.153001
-0.150598
-0.146844
-0.142367
-0.136553
-0.13004
-0.122248
-0.113819
-0.10421
-0.0940674
-0.0828802
-0.071302
-0.0588462
-0.0461766
-0.0328211
-0.0194586
-0.0056183
0.00800097
0.0218806
0.0353017
0.0487673
0.061538
0.0741483
0.0858418
0.0971897
0.107427
0.117162
0.12563
0.133477
0.139949
0.145718
0.15006
0.153661
0.155838
0.157277
0.157352
0.156729
0.154852
0.152347
0.148743
0.144566
0.139341
0.133764
0.12617
0.117595
0.106023
0.0930307
0.0764741
0.0584964
0.0374613
0.0153323
-0.00797413
-0.0315253
-0.0537921
-0.0753831
-0.0934456
-0.110239
-0.121538
-0.131004
-0.133945
-0.134808
-0.130737
-0.125698
-0.119503
-0.115068
-0.112218
0.111488
0.114646
0.11964
0.12678
0.134603
0.140255
0.143523
0.142447
0.137641
0.12792
0.115056
0.0979798
0.0787876
0.0568959
0.0340673
0.0106584
-0.0122411
-0.0336559
-0.0534072
-0.0704418
-0.0854096
-0.0974972
-0.107723
-0.115953
-0.122838
-0.128915
-0.134407
-0.139126
-0.143227
-0.146477
-0.148988
-0.150522
-0.15122
-0.150848
-0.149576
-0.147174
-0.143846
-0.139372
-0.133984
-0.127475
-0.120104
-0.11168
-0.102489
-0.0923526
-0.0815817
-0.0700105
-0.057973
-0.0453111
-0.0323801
-0.0190256
-0.00561993
0.0079912
0.0214228
0.0348359
0.0478387
0.0606018
0.0727351
0.0844217
0.0952812
0.105512
0.114753
0.123216
0.130569
0.137037
0.142323
0.146662
0.1498
0.151976
0.152982
0.153057
0.152042
0.150166
0.14732
0.143718
0.139228
0.134007
0.127879
0.120297
0.110688
0.0991695
0.0847891
0.0683392
0.0491532
0.0282786
0.00577794
-0.0173375
-0.0401605
-0.0622415
-0.0820053
-0.0999158
-0.114001
-0.125205
-0.131751
-0.134676
-0.133236
-0.129212
-0.12275
-0.116593
-0.112104
-0.109258
0.106143
0.1093
0.115405
0.122641
0.133195
0.138876
0.146043
0.144982
0.143478
0.133917
0.123499
0.106627
0.0887888
0.0671119
0.0442157
0.0210136
-0.00318253
-0.0244391
-0.0459371
-0.0628717
-0.0793074
-0.0913449
-0.102157
-0.110375
-0.11741
-0.123484
-0.129364
-0.134081
-0.138668
-0.141916
-0.144924
-0.146458
-0.147652
-0.147281
-0.146491
-0.144093
-0.141226
-0.136756
-0.131803
-0.125299
-0.118334
-0.109917
-0.101104
-0.0909756
-0.0805599
-0.0689974
-0.0572988
-0.0446464
-0.0320468
-0.0187023
-0.00563047
0.00797043
0.0210566
0.0344596
0.0470968
0.0598502
0.0715915
0.083269
0.0937068
0.10393
0.112719
0.121175
0.128051
0.134513
0.139303
0.143638
0.146271
0.148445
0.148951
0.149025
0.147529
0.145654
0.142363
0.138763
0.133949
0.12873
0.12252
0.11495
0.104806
0.0933354
0.0775167
0.0611628
0.0402114
0.0194902
-0.0044125
-0.0273245
-0.0504212
-0.0722853
-0.09096
-0.10866
-0.120572
-0.131602
-0.135077
-0.137965
-0.132721
-0.12865
-0.11933
-0.113054
-0.107354
-0.104505
0.100774
0.104018
0.11009
0.118192
0.128654
0.136577
0.143686
0.14588
0.144499
0.138353
0.128091
0.114222
0.0965824
0.0769973
0.0543245
0.03198
0.00794575
-0.0136238
-0.035043
-0.0529578
-0.0693686
-0.0823524
-0.0931016
-0.101878
-0.108782
-0.115256
-0.121131
-0.126274
-0.130858
-0.134598
-0.137604
-0.139684
-0.140877
-0.1411
-0.140311
-0.138545
-0.135681
-0.131875
-0.126925
-0.121112
-0.114152
-0.106448
-0.0976409
-0.0882449
-0.0778364
-0.0670248
-0.0553343
-0.0434507
-0.0308599
-0.0183017
-0.00523892
0.00755958
0.0206366
0.0332238
0.0458522
0.0577811
0.0695142
0.0803654
0.090796
0.1002
0.108983
0.11664
0.12351
0.129204
0.13399
0.137602
0.140234
0.141743
0.142249
0.141733
0.140239
0.13786
0.134572
0.130565
0.125754
0.120187
0.114115
0.106045
0.0959686
0.0835777
0.067785
0.0504011
0.0295263
0.0083428
-0.0154042
-0.0376941
-0.0605689
-0.0806126
-0.099081
-0.114012
-0.125755
-0.133496
-0.13683
-0.136441
-0.131233
-0.12478
-0.115538
-0.108239
-0.102569
-0.0995635
0.0949759
0.0983148
0.104352
0.113387
0.123751
0.134094
0.141141
0.14685
0.145496
0.14313
0.132984
0.122423
0.104968
0.087672
0.0652241
0.0438186
0.0200095
-0.00190069
-0.023136
-0.0421223
-0.0584148
-0.0724504
-0.0831514
-0.0925669
-0.0994659
-0.10637
-0.112241
-0.117845
-0.122425
-0.126695
-0.129699
-0.132369
-0.133562
-0.134425
-0.133637
-0.132554
-0.129692
-0.126604
-0.121658
-0.116591
-0.109636
-0.102701
-0.0939013
-0.0852961
-0.0748955
-0.0648947
-0.053213
-0.0421596
-0.0295782
-0.017869
-0.00481612
0.00711592
0.0201831
0.0318894
0.0445082
0.0555468
0.0672711
0.0772301
0.0876528
0.0961725
0.104949
0.111741
0.118607
0.123471
0.128253
0.131084
0.133714
0.134507
0.135013
0.13386
0.132366
0.129443
0.126158
0.121712
0.116905
0.110962
0.104895
0.0962524
0.0862231
0.0728121
0.0571358
0.0386277
0.0179349
-0.00375257
-0.0272732
-0.0488836
-0.071527
-0.0895799
-0.10785
-0.119732
-0.131338
-0.135441
-0.138723
-0.134795
-0.129626
-0.120601
-0.111442
-0.103038
-0.0974021
-0.0942269
0.0892436
0.0925869
0.0981985
0.107205
0.117524
0.128152
0.136629
0.142964
0.144771
0.143181
0.136716
0.126911
0.112983
0.0963003
0.0768075
0.0557868
0.0338381
0.0120642
-0.00865484
-0.0276946
-0.0443713
-0.0585416
-0.0700519
-0.0796032
-0.0871408
-0.0941225
-0.100382
-0.106071
-0.111026
-0.115395
-0.118878
-0.12166
-0.123432
-0.124417
-0.124304
-0.123354
-0.121257
-0.118309
-0.114211
-0.10929
-0.103261
-0.0964786
-0.0886728
-0.0802251
-0.0708794
-0.0610408
-0.0504659
-0.0395791
-0.0281464
-0.0166078
-0.00473336
0.00702449
0.0188971
0.0304265
0.0418506
0.052711
0.0632579
0.0730391
0.0823208
0.0906651
0.098357
0.104979
0.110835
0.115536
0.119403
0.122082
0.123905
0.12456
0.124383
0.123108
0.121065
0.118039
0.114343
0.109816
0.104622
0.0986117
0.091947
0.0831842
0.0723787
0.0588423
0.0427304
0.0241602
0.00381166
-0.0177691
-0.039695
-0.0609652
-0.0809325
-0.0984184
-0.113373
-0.124531
-0.132521
-0.135853
-0.135836
-0.131254
-0.124363
-0.115007
-0.105686
-0.0972878
-0.0920253
-0.0888339
0.0798518
0.083182
0.0890296
0.0979936
0.111323
0.121777
0.134772
0.141063
0.147481
0.145972
0.144028
0.134403
0.124247
0.107817
0.090636
0.0699002
0.0485713
0.0270572
0.00571931
-0.0131297
-0.0308354
-0.0448994
-0.0568451
-0.0663713
-0.073953
-0.0809285
-0.0875878
-0.0932717
-0.0988585
-0.103224
-0.10745
-0.11023
-0.112846
-0.113831
-0.114654
-0.113704
-0.112622
-0.109676
-0.106662
-0.101745
-0.096858
-0.0900817
-0.0834695
-0.0750292
-0.0669219
-0.0570921
-0.0477945
-0.0369173
-0.026795
-0.0152667
-0.0047297
0.00701781
0.0175339
0.0290532
0.0391115
0.0499623
0.0591464
0.0689189
0.0768559
0.0851929
0.0915752
0.0981913
0.102792
0.10749
0.110177
0.112854
0.113595
0.11425
0.113109
0.111835
0.108966
0.105943
0.101575
0.0970514
0.0914627
0.0854575
0.0787851
0.0700466
0.0588351
0.0454039
0.0282251
0.00984466
-0.0112701
-0.0325893
-0.0541631
-0.0751409
-0.0931358
-0.110353
-0.121854
-0.132809
-0.136492
-0.139714
-0.135144
-0.130574
-0.11905
-0.109851
-0.097231
-0.0888611
-0.0831109
-0.079932
0.0703243
0.0735404
0.0793427
0.0888188
0.101997
0.114578
0.127691
0.137483
0.144247
0.147116
0.14551
0.140462
0.130685
0.118366
0.101581
0.0838779
0.0628342
0.0429329
0.0217364
0.00327734
-0.0143802
-0.0286421
-0.0405045
-0.0502877
-0.0577656
-0.0650587
-0.0717334
-0.0778748
-0.0834935
-0.0884758
-0.092741
-0.0962942
-0.0989572
-0.100866
-0.101741
-0.101857
-0.100833
-0.0990866
-0.0961354
-0.0925396
-0.0877205
-0.0823741
-0.0758341
-0.0689198
-0.0608883
-0.0526659
-0.043447
-0.0342428
-0.0242016
-0.0143942
-0.00394014
0.00605832
0.0164906
0.0262546
0.0362287
0.0453418
0.0544425
0.0625201
0.0703756
0.0770867
0.0833906
0.088476
0.093003
0.0962905
0.0989095
0.100321
0.101001
0.100556
0.0993608
0.0971712
0.0942568
0.0905142
0.086111
0.0810725
0.0754677
0.0691305
0.0625718
0.053575
0.0424532
0.0287709
0.0116401
-0.00650663
-0.0274864
-0.0474518
-0.0687525
-0.087001
-0.104607
-0.117973
-0.12909
-0.135599
-0.138929
-0.137725
-0.132781
-0.124494
-0.112809
-0.10119
-0.0887001
-0.0795791
-0.0738738
-0.0707197
0.0604155
0.0635424
0.069321
0.0790202
0.0917503
0.105778
0.118981
0.131502
0.139325
0.145679
0.145658
0.144274
0.136368
0.12736
0.112558
0.0973331
0.0780402
0.0595168
0.0395021
0.0214598
0.00436808
-0.00998788
-0.0218535
-0.0318498
-0.0395315
-0.0470688
-0.053879
-0.0603736
-0.0661354
-0.0715951
-0.0760788
-0.080231
-0.083189
-0.0858139
-0.08706
-0.0880037
-0.087425
-0.0866095
-0.0841745
-0.0816044
-0.0773673
-0.073132
-0.067233
-0.0615048
-0.0541653
-0.0471927
-0.0387074
-0.0308042
-0.0215274
-0.0130581
-0.00338714
0.00525134
0.014895
0.0232942
0.0324882
0.0402501
0.0485933
0.0553534
0.062488
0.0679355
0.0735684
0.0774649
0.0813831
0.0835759
0.0856588
0.0860887
0.0863125
0.0850151
0.0834513
0.0805515
0.0773586
0.0730587
0.068468
0.0630313
0.0572623
0.0506693
0.0438944
0.0346832
0.023533
0.00971655
-0.00691047
-0.024761
-0.0446579
-0.0634461
-0.0830998
-0.0991054
-0.114796
-0.125048
-0.134295
-0.137236
-0.138902
-0.134165
-0.128005
-0.116809
-0.104852
-0.0915587
-0.0794064
-0.0698999
-0.0642208
-0.0610917
0.0478157
0.0509252
0.0558231
0.0653472
0.0796291
0.0933486
0.109897
0.122168
0.134746
0.140984
0.146742
0.145383
0.143486
0.134636
0.125206
0.110241
0.0949208
0.0766966
0.0589103
0.0411269
0.0248444
0.0106484
-0.00109781
-0.0110565
-0.0188478
-0.0263767
-0.0335383
-0.0400257
-0.0464034
-0.051857
-0.0571907
-0.0613383
-0.065378
-0.068
-0.0705535
-0.0714961
-0.0724404
-0.0716258
-0.0709153
-0.0683481
-0.06602
-0.0617895
-0.0579637
-0.0522419
-0.0471167
-0.0401517
-0.0339955
-0.026101
-0.0192387
-0.0107789
-0.00357564
0.00505323
0.0122107
0.0206005
0.0273269
0.0350803
0.0410129
0.0477654
0.0525854
0.0580268
0.0614791
0.0653713