/*--------------------------------*- C++ -*----------------------------------*\
| =========                 |                                                 |
| \\      /  F ield         | OpenFOAM: The Open Source CFD Toolbox           |
|  \\    /   O peration     | Version:  v2106                                 |
|   \\  /    A nd           | Website:  www.openfoam.com                      |
|    \\/     M anipulation  |                                                 |
\*---------------------------------------------------------------------------*/
FoamFile
{
    version     2.0;
    format      ascii;
    arch        "LSB;label=32;scalar=64";
    class       volScalarField;
    location    "0";
    object      expGpCoeffs8;
}
// * * * * * * * * * * * * * * * * * * * * * * * * * * * * * * * * * * * * * //

dimensions      [0 0 0 0 0 0 0];

internalField   nonuniform List<scalar> 
8000
(
0.149614
0.153533
0.159278
0.165782
0.170596
0.173868
0.175285
0.175147
0.173687
0.170989
0.167359
0.162817
0.157576
0.151661
0.145423
0.138863
0.132598
0.126612
0.121573
0.117499
0.114853
0.113674
0.113813
0.115284
0.1173
0.119836
0.122304
0.124685
0.126856
0.128816
0.130549
0.132053
0.133322
0.134354
0.135149
0.135707
0.136034
0.136132
0.136014
0.13568
0.135147
0.134417
0.133508
0.132423
0.13118
0.129781
0.128242
0.126567
0.12477
0.122853
0.120826
0.118693
0.116461
0.114132
0.111713
0.109204
0.10661
0.103933
0.101178
0.0983439
0.095438
0.0924614
0.0894219
0.0863211
0.0831705
0.0799719
0.0767408
0.0734795
0.0702076
0.0669277
0.0636627
0.0604156
0.0572115
0.0540536
0.0509867
0.048017
0.0452628
0.0427232
0.0404517
0.0384625
0.0365282
0.0346538
0.0324191
0.0298115
0.0264796
0.0223761
0.0173926
0.01148
0.00472194
-0.00286092
-0.0110612
-0.0198435
-0.0286474
-0.0375367
-0.0454282
-0.052161
-0.0569676
-0.0593317
-0.0601539
-0.0600624
0.149299
0.153216
0.159382
0.165888
0.170743
0.17402
0.175405
0.175271
0.173772
0.171076
0.167426
0.162885
0.157626
0.151711
0.145434
0.138872
0.132549
0.126562
0.121473
0.117398
0.114723
0.113543
0.11373
0.115201
0.117297
0.119833
0.122321
0.124701
0.126874
0.128833
0.130567
0.132072
0.133341
0.134373
0.135168
0.135725
0.136052
0.13615
0.136031
0.135697
0.135162
0.134432
0.133522
0.132437
0.131192
0.129792
0.128253
0.126578
0.124779
0.122862
0.120834
0.118701
0.116469
0.11414
0.11172
0.109211
0.106617
0.10394
0.101184
0.0983502
0.0954433
0.092467
0.0894262
0.0863258
0.0831736
0.0799754
0.0767423
0.0734815
0.0702072
0.0669277
0.0636601
0.0604134
0.0572065
0.054049
0.0509761
0.0480067
0.0452383
0.0426991
0.040431
0.0384421
0.0365385
0.0346639
0.0324666
0.0298578
0.0265506
0.0224445
0.0174637
0.0115476
0.00477946
-0.00280744
-0.0110308
-0.0198174
-0.0286809
-0.0375728
-0.0455814
-0.0523117
-0.0571747
-0.059536
-0.0601465
-0.060055
0.148958
0.152875
0.159495
0.166002
0.170902
0.174185
0.175534
0.175404
0.173865
0.17117
0.167499
0.162958
0.157681
0.151765
0.145445
0.138882
0.132497
0.126508
0.121364
0.117288
0.114581
0.1134
0.113641
0.115112
0.117293
0.119829
0.122338
0.124718
0.126893
0.128852
0.130588
0.132092
0.133362
0.134394
0.135188
0.135746
0.136072
0.13617
0.136049
0.135715
0.135178
0.134449
0.133536
0.132451
0.131204
0.129805
0.128264
0.126589
0.124789
0.122872
0.120843
0.11871
0.116476
0.114148
0.111727
0.109219
0.106624
0.103947
0.10119
0.098357
0.095449
0.0924731
0.0894309
0.086331
0.083177
0.0799792
0.0767439
0.0734836
0.0702067
0.0669277
0.0636572
0.060411
0.0572012
0.0540441
0.0509646
0.0479957
0.0452118
0.042673
0.0404086
0.0384202
0.0365496
0.0346749
0.0325179
0.0299077
0.0266274
0.0225184
0.0175404
0.0116206
0.00484157
-0.00274969
-0.010998
-0.0197892
-0.028717
-0.0376118
-0.0457469
-0.0524745
-0.0573983
-0.0597566
-0.0601385
-0.060047
0.14859
0.152506
0.159616
0.166125
0.171073
0.174362
0.175674
0.175549
0.173964
0.171271
0.167578
0.163037
0.15774
0.151823
0.145457
0.138892
0.132441
0.12645
0.121248
0.11717
0.114429
0.113247
0.113545
0.115015
0.117289
0.119824
0.122357
0.124737
0.126914
0.128873
0.13061
0.132114
0.133385
0.134416
0.13521
0.135768
0.136093
0.136191
0.136068
0.135734
0.135196
0.134466
0.133552
0.132467
0.131218
0.129819
0.128276
0.126602
0.1248
0.122883
0.120853
0.11872
0.116485
0.114157
0.111735
0.109227
0.106631
0.103955
0.101197
0.0983643
0.0954551
0.0924797
0.089436
0.0863365
0.0831806
0.0799834
0.0767457
0.0734858
0.0702062
0.0669277
0.0636541
0.0604084
0.0571954
0.0540388
0.0509523
0.0479838
0.0451832
0.0426448
0.0403845
0.0383964
0.0365616
0.0346867
0.0325734
0.0299617
0.0267102
0.0225983
0.0176233
0.0116994
0.00490864
-0.00268733
-0.0109625
-0.0197588
-0.028756
-0.037654
-0.0459255
-0.0526502
-0.0576398
-0.0599947
-0.0601299
-0.0600384
0.148193
0.152107
0.159748
0.166257
0.171259
0.174554
0.175825
0.175705
0.174072
0.171381
0.167663
0.163123
0.157803
0.151886
0.14547
0.138904
0.13238
0.126387
0.121122
0.117042
0.114264
0.113081
0.113442
0.114911
0.117285
0.11982
0.122378
0.124757
0.126937
0.128895
0.130634
0.132138
0.133409
0.13444
0.135234
0.135792
0.136116
0.136214
0.136089
0.135755
0.135215
0.134486
0.133569
0.132484
0.131233
0.129834
0.128289
0.126615
0.124811
0.122895
0.120863
0.118731
0.116494
0.114167
0.111744
0.109236
0.106639
0.103964
0.101204
0.0983721
0.0954617
0.0924868
0.0894415
0.0863425
0.0831845
0.0799878
0.0767476
0.0734883
0.0702057
0.0669277
0.0636508
0.0604056
0.0571891
0.054033
0.0509389
0.0479709
0.0451523
0.0426144
0.0403584
0.0383708
0.0365746
0.0346995
0.0326332
0.03002
0.0267997
0.0226845
0.0177128
0.0117845
0.00498107
-0.00261998
-0.0109242
-0.019726
-0.0287982
-0.0376995
-0.0461185
-0.05284
-0.0579268
-0.0602519
-0.0601206
-0.0600292
0.147933
0.151858
0.159844
0.166394
0.171437
0.174779
0.175997
0.175927
0.174192
0.171521
0.167771
0.163262
0.157904
0.152033
0.145498
0.138935
0.132315
0.126319
0.120986
0.116904
0.114086
0.112902
0.11333
0.114799
0.117381
0.119918
0.122501
0.124881
0.127063
0.129023
0.130763
0.132268
0.133539
0.13457
0.135364
0.13592
0.136242
0.136338
0.136212
0.135875
0.135333
0.1346
0.133681
0.132591
0.131338
0.129935
0.128387
0.126708
0.124903
0.12298
0.120947
0.118809
0.116572
0.114239
0.111815
0.109302
0.106704
0.104023
0.101262
0.0984249
0.0955134
0.0925336
0.0894868
0.0863831
0.0832233
0.0800222
0.0767796
0.0735164
0.0702311
0.0669496
0.0636696
0.0604213
0.0572016
0.0540429
0.0509415
0.0479711
0.045119
0.0425815
0.0403303
0.0383431
0.0365886
0.0347133
0.0326978
0.0300829
0.0268895
0.0227701
0.0177602
0.011847
0.00501495
-0.00256882
-0.0109134
-0.0196997
-0.0289726
-0.0378024
-0.046536
-0.0531473
-0.0583994
-0.060661
-0.0602653
-0.0601612
0.148013
0.151953
0.159938
0.166543
0.17159
0.175031
0.176258
0.176313
0.17459
0.172048
0.168311
0.163918
0.158574
0.152798
0.146279
0.139787
0.133144
0.127129
0.121811
0.117662
0.114885
0.113662
0.114204
0.115708
0.118416
0.120983
0.123564
0.125966
0.128148
0.130121
0.131861
0.13337
0.134641
0.135667
0.13646
0.137002
0.137324
0.137397
0.13727
0.136901
0.136359
0.135585
0.134666
0.13353
0.132277
0.13082
0.129273
0.127537
0.125732
0.12375
0.121717
0.119518
0.117281
0.114885
0.112462
0.109887
0.107289
0.104548
0.101788
0.0988922
0.0959812
0.0929455
0.0898993
0.0867429
0.0835836
0.0803334
0.0770915
0.0737832
0.0704984
0.0671761
0.0638967
0.060612
0.0573929
0.0542022
0.0511014
0.0481012
0.0452315
0.0426589
0.0403977
0.038362
0.0366136
0.0346499
0.032642
0.0298962
0.0266951
0.0224402
0.0174363
0.0114034
0.00457995
-0.00309048
-0.0114243
-0.0202574
-0.0295183
-0.0383564
-0.0470776
-0.0536676
-0.0589098
-0.0611322
-0.060734
-0.0606069
0.148099
0.152055
0.16004
0.166703
0.171755
0.175302
0.176538
0.17673
0.17502
0.172616
0.168894
0.164625
0.159299
0.153624
0.147124
0.140706
0.134082
0.128116
0.122814
0.118699
0.115933
0.114741
0.115288
0.116827
0.119534
0.122132
0.124713
0.127138
0.12932
0.131307
0.133046
0.13456
0.135831
0.136851
0.137644
0.13817
0.138493
0.138539
0.138413
0.138009
0.137466
0.136649
0.13573
0.134543
0.13329
0.131777
0.13023
0.128432
0.126628
0.124581
0.122548
0.120282
0.118046
0.115583
0.11316
0.110519
0.107922
0.105115
0.102356
0.0993968
0.0964864
0.0933903
0.0903447
0.0871314
0.0839728
0.0806695
0.0774283
0.0740712
0.0707871
0.0674206
0.064142
0.0608179
0.0575994
0.0543742
0.051274
0.0482418
0.0453726
0.0427583
0.0404972
0.0383916
0.036643
0.0345724
0.0325656
0.0296828
0.0264853
0.0220839
0.0170866
0.0109244
0.00411022
-0.00365378
-0.0119761
-0.0208597
-0.0301075
-0.0389546
-0.0476624
-0.0542295
-0.0594608
-0.061641
-0.0612401
-0.0610881
0.148192
0.152166
0.16015
0.166876
0.171933
0.175595
0.176842
0.177181
0.175484
0.17323
0.169523
0.165389
0.16008
0.154517
0.148035
0.141699
0.135094
0.129182
0.123898
0.119819
0.117065
0.115907
0.116458
0.118035
0.120742
0.123373
0.125953
0.128404
0.130585
0.132587
0.134326
0.135845
0.137116
0.13813
0.138923
0.139432
0.139755
0.139773
0.139647
0.139205
0.138663
0.137798
0.13688
0.135637
0.134385
0.13281
0.131263
0.129399
0.127595
0.125478
0.123446
0.121108
0.118872
0.116337
0.113915
0.111201
0.108605
0.105728
0.102969
0.0999416
0.0970319
0.0938707
0.0908257
0.0875509
0.084393
0.0810325
0.0777919
0.0743822
0.0710989
0.0676847
0.0644068
0.0610403
0.0578225
0.0545599
0.0514604
0.0483937
0.0455251
0.0428656
0.0406045
0.0384235
0.0366747
0.0344888
0.0324831
0.0294523
0.0262587
0.0216992
0.0167089
0.0104071
0.00360299
-0.00426206
-0.0125718
-0.0215101
-0.0307437
-0.0396005
-0.0482939
-0.0548363
-0.0600559
-0.0621904
-0.0617867
-0.0616077
0.148292
0.152285
0.160269
0.167063
0.172125
0.175912
0.177169
0.177667
0.175985
0.173892
0.170203
0.166215
0.160925
0.15548
0.149019
0.142771
0.136187
0.130333
0.125067
0.121028
0.118287
0.117166
0.117722
0.119339
0.122046
0.124713
0.127293
0.12977
0.131951
0.13397
0.135709
0.137232
0.138503
0.139511
0.140304
0.140795
0.141117
0.141106
0.14098
0.140496
0.139954
0.139039
0.138121
0.136819
0.135566
0.133925
0.132379
0.130443
0.128639
0.126447
0.124415
0.122
0.119765
0.117151
0.114729
0.111938
0.109342
0.106389
0.103631
0.10053
0.0976209
0.0943893
0.0913451
0.0880039
0.0848467
0.0814244
0.0781846
0.0747181
0.0714355
0.0679699
0.0646928
0.0612803
0.0580633
0.0547605
0.0516617
0.0485576
0.0456897
0.0429815
0.0407205
0.0384579
0.036709
0.0343984
0.032394
0.0292034
0.0260139
0.0212838
0.0163011
0.00984858
0.00305526
-0.00491891
-0.0132152
-0.0222124
-0.0314308
-0.0402981
-0.0489759
-0.0554916
-0.0606985
-0.0627837
-0.0623769
-0.0621689
0.148401
0.152414
0.160397
0.167265
0.172332
0.176254
0.177523
0.178192
0.176526
0.174608
0.170937
0.167106
0.161837
0.156521
0.150082
0.143929
0.137368
0.131576
0.126331
0.122334
0.119607
0.118525
0.119087
0.120748
0.123453
0.12616
0.128739
0.131246
0.133426
0.135463
0.137201
0.138731
0.140001
0.141002
0.141795
0.142266
0.142588
0.142545
0.142419
0.141891
0.141349
0.140379
0.139461
0.138095
0.136843
0.13513
0.133584
0.13157
0.129767
0.127493
0.125462
0.122963
0.120728
0.118031
0.115609
0.112734
0.110139
0.107103
0.104346
0.101165
0.098257
0.0949494
0.091906
0.0884931
0.0853367
0.0818476
0.0786086
0.0750808
0.071799
0.0682779
0.0650016
0.0615396
0.0583234
0.0549771
0.0518791
0.0487346
0.0458674
0.0431067
0.0408456
0.0384951
0.036746
0.0343008
0.0322978
0.0289346
0.0257497
0.0208352
0.0158608
0.00924542
0.00246379
-0.0056282
-0.0139099
-0.0229708
-0.0321726
-0.0410513
-0.0497122
-0.0561991
-0.0613924
-0.0634243
-0.0630142
-0.0627748
0.148518
0.152554
0.160535
0.167483
0.172557
0.176623
0.177905
0.178759
0.177111
0.175381
0.17173
0.168068
0.162821
0.157644
0.15123
0.145179
0.138642
0.132918
0.127695
0.123744
0.121033
0.119992
0.12056
0.122269
0.124974
0.127722
0.130301
0.132839
0.135019
0.137075
0.138813
0.140349
0.141619
0.142612
0.143405
0.143855
0.144177
0.144098
0.143972
0.143397
0.142855
0.141826
0.140908
0.139472
0.138221
0.13643
0.134885
0.132787
0.130985
0.128623
0.126592
0.124003
0.121769
0.11898
0.116559
0.113593
0.110999
0.107874
0.105118
0.101851
0.0989439
0.0955543
0.0925116
0.0890213
0.0858658
0.0823046
0.0790665
0.0754724
0.0721916
0.0686105
0.065335
0.0618196
0.0586043
0.055211
0.0521138
0.0489258
0.0460594
0.0432419
0.0409808
0.0385353
0.036786
0.0341955
0.0321939
0.0286443
0.0254643
0.0203507
0.0153853
0.00859411
0.00182511
-0.00639412
-0.0146601
-0.0237898
-0.0329738
-0.0418647
-0.0505074
-0.0569631
-0.0621417
-0.0641161
-0.0637024
-0.0634291
0.149083
0.153124
0.160676
0.167648
0.172833
0.176973
0.178467
0.179426
0.17795
0.176358
0.172893
0.169343
0.164284
0.159185
0.15288
0.14692
0.14038
0.13479
0.129491
0.125688
0.1229
0.121968
0.122576
0.124319
0.127221
0.129998
0.132588
0.135148
0.137345
0.139415
0.141161
0.142701
0.14397
0.144959
0.14574
0.146175
0.146476
0.146374
0.146217
0.145608
0.145027
0.143956
0.14299
0.141507
0.1402
0.138356
0.13675
0.134595
0.132727
0.130305
0.128207
0.125555
0.123252
0.1204
0.11791
0.114882
0.112219
0.109033
0.10621
0.102885
0.0999139
0.0964677
0.0933652
0.0898216
0.0866102
0.0829995
0.0797102
0.0760706
0.0727436
0.0691213
0.0658048
0.0622526
0.0590015
0.0555759
0.0524495
0.0492315
0.0463129
0.043449
0.0411462
0.0386126
0.0367958
0.0340858
0.0319637
0.0282808
0.0249394
0.0196835
0.0145782
0.00764566
0.000818956
-0.0075045
-0.0157756
-0.0249615
-0.0341396
-0.0430982
-0.0516103
-0.0581378
-0.0631593
-0.0651705
-0.0647983
-0.0645111
0.150174
0.154215
0.160828
0.167802
0.173146
0.177298
0.179261
0.180247
0.179305
0.177754
0.174754
0.171254
0.166598
0.161554
0.15563
0.149731
0.143531
0.138
0.132956
0.129199
0.126586
0.125681
0.126268
0.128015
0.13082
0.133597
0.136223
0.138782
0.141033
0.143102
0.144875
0.146415
0.147681
0.148669
0.149418
0.149852
0.15009
0.149988
0.149738
0.14913
0.148427
0.147357
0.146246
0.144763
0.143289
0.141446
0.139656
0.137502
0.135437
0.133016
0.130713
0.128062
0.12555
0.122699
0.119999
0.116971
0.114102
0.110917
0.107893
0.104568
0.101404
0.0979588
0.0946736
0.0911312
0.0877496
0.0841401
0.0806946
0.0770561
0.0735879
0.0699668
0.0665247
0.0629736
0.0596123
0.0561879
0.052971
0.0497541
0.0467548
0.0438912
0.0414033
0.0388685
0.0366951
0.0339864
0.0313839
0.0277107
0.0238572
0.0186229
0.0130732
0.00617344
-0.000982197
-0.00926357
-0.0177065
-0.0268431
-0.0359661
-0.0448752
-0.053068
-0.059559
-0.0643309
-0.0663265
-0.066381
-0.0660922
0.151241
0.155282
0.161167
0.168141
0.173597
0.177759
0.180118
0.181134
0.180769
0.179261
0.176765
0.173317
0.169096
0.164112
0.158599
0.152765
0.146933
0.141466
0.136698
0.132991
0.130567
0.12969
0.130255
0.132006
0.134706
0.137482
0.140147
0.142705
0.145016
0.147084
0.148886
0.150425
0.151688
0.152676
0.153389
0.153823
0.153993
0.15389
0.15354
0.152932
0.1521
0.151029
0.149761
0.148279
0.146625
0.144783
0.142794
0.140641
0.138364
0.135944
0.133419
0.130769
0.128031
0.125181
0.122254
0.119228
0.116135
0.112951
0.109709
0.106386
0.103013
0.0995689
0.0960865
0.0925453
0.08898
0.0853717
0.0817575
0.0781203
0.0744997
0.0708798
0.067302
0.0637522
0.0602719
0.0568486
0.0535342
0.0503184
0.0472319
0.0443687
0.0416809
0.0391447
0.0365863
0.033879
0.0307578
0.027095
0.0226886
0.0174775
0.0114481
0.00458369
-0.00292716
-0.0111631
-0.0197915
-0.0288749
-0.0379385
-0.046794
-0.0547736
-0.0612281
-0.0660071
-0.0679886
-0.0680823
-0.0677917
0.150605
0.154644
0.161849
0.168832
0.17473
0.178929
0.181705
0.182774
0.182809
0.181364
0.17932
0.175941
0.1721
0.167189
0.161897
0.156136
0.150395
0.144991
0.140267
0.136607
0.134242
0.133392
0.134158
0.135913
0.138901
0.141675
0.144494
0.147052
0.149436
0.151503
0.153344
0.154882
0.156145
0.157132
0.157805
0.15824
0.15833
0.158227
0.15776
0.157152
0.156168
0.155098
0.153648
0.152166
0.150307
0.148465
0.146251
0.144098
0.141583
0.139164
0.136393
0.133743
0.130755
0.127906
0.12473
0.121705
0.118365
0.115183
0.111702
0.10838
0.104777
0.101334
0.0976327
0.0940928
0.0903212
0.0867143
0.0829083
0.0792724
0.0754757
0.0718572
0.0681202
0.0645718
0.0609498
0.0575279
0.0540845
0.05087
0.0476574
0.0447948
0.0419376
0.0394004
0.0365743
0.0338669
0.0303552
0.0266979
0.0217908
0.0165962
0.0100255
0.00319092
-0.00479328
-0.0129866
-0.0219617
-0.0309902
-0.04034
-0.0491295
-0.0574143
-0.0637998
-0.0685898
-0.0705368
-0.0697923
-0.0694999
0.149933
0.153976
0.162478
0.169475
0.175934
0.180125
0.183422
0.18455
0.185055
0.183677
0.18211
0.178804
0.175362
0.170531
0.165467
0.159785
0.154099
0.148764
0.144024
0.140414
0.138066
0.137244
0.138296
0.140056
0.14343
0.146203
0.149194
0.15175
0.154216
0.156282
0.158164
0.159702
0.160964
0.161952
0.162581
0.163015
0.163019
0.162916
0.162322
0.161714
0.160566
0.159497
0.15785
0.156369
0.154286
0.152445
0.149988
0.147836
0.145063
0.142644
0.139606
0.136958
0.133699
0.130851
0.127405
0.124381
0.120776
0.117595
0.113856
0.110535
0.106683
0.103242
0.0993034
0.095765
0.0917702
0.0881647
0.084151
0.0805166
0.0765292
0.0729121
0.0690026
0.0654556
0.0616801
0.0582596
0.0546757
0.0514624
0.0481001
0.0452381
0.0422048
0.0396665
0.0365828
0.0338753
0.0299638
0.0263123
0.0208575
0.0156802
0.00850979
0.00170701
-0.00679077
-0.0149384
-0.0242979
-0.0332673
-0.0429358
-0.0516533
-0.0601897
-0.0665635
-0.0711858
-0.0731346
-0.0716427
-0.0713458
0.150134
0.154233
0.162734
0.169955
0.176428
0.181057
0.18445
0.186096
0.186738
0.185907
0.184449
0.18166
0.178327
0.173948
0.168988
0.163667
0.15806
0.152977
0.148293
0.144849
0.142548
0.141849
0.142986
0.144863
0.148298
0.151168
0.154171
0.156788
0.159258
0.16135
0.163234
0.164759
0.166021
0.166958
0.167584
0.167928
0.167925
0.167696
0.167092
0.166322
0.165161
0.163896
0.162235
0.160531
0.158432
0.156344
0.153869
0.151453
0.148661
0.145966
0.142908
0.139977
0.136698
0.133565
0.1301
0.126793
0.123169
0.119712
0.115954
0.112368
0.108498
0.104804
0.100849
0.0970731
0.0930626
0.0892377
0.0852094
0.0813748
0.0773742
0.0735774
0.0696561
0.0659504
0.0621645
0.0586064
0.055013
0.051673
0.0483256
0.045309
0.0422569
0.0394481
0.0363242
0.0331987
0.0292337
0.0250634
0.0195457
0.0138434
0.00663069
-0.000606727
-0.00910859
-0.0175428
-0.0268852
-0.0359824
-0.045609
-0.0543202
-0.0627801
-0.0690199
-0.0735899
-0.0753348
-0.0738312
-0.0734212
0.150352
0.15451
0.16301
0.170474
0.176961
0.182063
0.185494
0.187764
0.188461
0.188287
0.186896
0.184724
0.181468
0.177623
0.172749
0.167851
0.16233
0.157555
0.152944
0.149717
0.147467
0.146938
0.148094
0.15012
0.153554
0.156534
0.159536
0.162224
0.164693
0.166814
0.168697
0.170208
0.17147
0.172347
0.172973
0.173214
0.17321
0.172833
0.172229
0.17127
0.17011
0.168618
0.166958
0.164994
0.162895
0.160521
0.158047
0.155323
0.152533
0.149516
0.14646
0.143199
0.139922
0.136457
0.132993
0.129358
0.125736
0.121958
0.118201
0.114305
0.110438
0.106449
0.102496
0.098444
0.0944355
0.0903549
0.0863286
0.0822609
0.0782622
0.0742561
0.0703366
0.0664461
0.0626621
0.0589437
0.0553521
0.0518645
0.0485186
0.0453026
0.042252
0.0390991
0.0359795
0.032337
0.0283852
0.0235827
0.0180924
0.0117533
0.00458378
-0.00318102
-0.0116256
-0.0204127
-0.0296858
-0.0389469
-0.0484949
-0.0571954
-0.0655772
-0.0716724
-0.076186
-0.0777106
-0.0761943
-0.0756624
0.150586
0.15481
0.163308
0.171034
0.177537
0.18315
0.18662
0.189565
0.190322
0.190858
0.18954
0.188033
0.184861
0.181592
0.176811
0.17237
0.166942
0.162497
0.157967
0.154973
0.152779
0.152432
0.153611
0.155796
0.159229
0.16233
0.16533
0.168094
0.170562
0.172714
0.174597
0.176092
0.177353
0.178167
0.178792
0.178921
0.178918
0.17838
0.177777
0.176613
0.175453
0.173717
0.172057
0.169813
0.167715
0.165031
0.162559
0.159503
0.156714
0.15335
0.150296
0.146679
0.143403
0.13958
0.136118
0.132128
0.128507
0.124382
0.120628
0.116398
0.112532
0.108226
0.104274
0.0999244
0.0959179
0.0915614
0.0875371
0.0832177
0.079221
0.074989
0.0710715
0.0669815
0.0631993
0.059308
0.0557182
0.0520712
0.048727
0.0452958
0.0422467
0.0387222
0.0356073
0.0314066
0.0274689
0.0219839
0.016523
0.00949632
0.00237343
-0.00596085
-0.0143436
-0.0235118
-0.03271
-0.0421481
-0.0516112
-0.0603001
-0.0685977
-0.0745368
-0.0789893
-0.0802761
-0.0787461
-0.0780825
0.15173
0.15597
0.163254
0.171063
0.177739
0.183576
0.187536
0.190785
0.192118
0.192986
0.192206
0.19102
0.18837
0.185392
0.181153
0.176962
0.172043
0.167804
0.163664
0.160837
0.158892
0.158671
0.159852
0.162114
0.165422
0.168569
0.171554
0.174347
0.176819
0.178983
0.18084
0.182329
0.183535
0.184324
0.184865
0.18495
0.184834
0.184235
0.183491
0.182247
0.180921
0.179089
0.177238
0.174885
0.172575
0.169771
0.167068
0.163884
0.160851
0.157353
0.154046
0.150292
0.146759
0.142797
0.139078
0.134951
0.131078
0.126819
0.12282
0.118461
0.114363
0.109934
0.105765
0.1013
0.097092
0.0926293
0.0884224
0.0840063
0.0798466
0.0755279
0.0714676
0.0673012
0.0633962
0.0594388
0.0557425
0.0520346
0.0486032
0.0450733
0.0418075
0.0381182
0.0346141
0.0301827
0.0257576
0.0200081
0.0140913
0.00681394
-0.0006323
-0.0091568
-0.0177107
-0.0269856
-0.0361981
-0.0456537
-0.0549209
-0.0635396
-0.071362
-0.0771397
-0.0811924
-0.08234
-0.0815758
-0.0808691
0.152344
0.156582
0.163403
0.171211
0.178191
0.184045
0.188638
0.191929
0.19411
0.195041
0.195145
0.194039
0.192223
0.18934
0.185884
0.181798
0.177597
0.173462
0.16991
0.167165
0.165631
0.165457
0.166683
0.168953
0.172161
0.175306
0.178316
0.181107
0.183592
0.185754
0.187572
0.18906
0.190176
0.190964
0.191363
0.191448
0.191139
0.19054
0.189553
0.18831
0.186695
0.184864
0.182682
0.18033
0.177653
0.174851
0.171751
0.168569
0.165117
0.16162
0.15788
0.154128
0.150155
0.146196
0.142037
0.137912
0.133608
0.129351
0.124935
0.120579
0.116082
0.111656
0.107113
0.102651
0.0980972
0.0936371
0.0891151
0.0847017
0.0802598
0.0759436
0.071635
0.0674711
0.0633517
0.0593967
0.0555167
0.0518109
0.0481808
0.0446537
0.0409965
0.0373145
0.0331533
0.0287408
0.0235026
0.0177911
0.0110911
0.00387337
-0.0041939
-0.012641
-0.0215986
-0.0307828
-0.0401419
-0.0494967
-0.0586403
-0.0671575
-0.0747105
-0.0804084
-0.0843344
-0.0854478
-0.0844955
-0.083786
0.150764
0.155005
0.163725
0.171554
0.179231
0.185114
0.190535
0.193877
0.196903
0.197922
0.198896
0.197891
0.196879
0.194107
0.191239
0.187272
0.183392
0.179365
0.175972
0.173309
0.171906
0.171778
0.173461
0.175737
0.179476
0.182619
0.185803
0.188592
0.191107
0.193268
0.195055
0.196542
0.197565
0.198352
0.198595
0.198679
0.198152
0.197553
0.19629
0.195047
0.193101
0.191271
0.188711
0.186359
0.183264
0.180463
0.176914
0.173733
0.16981
0.166315
0.162091
0.15834
0.153879
0.149922
0.145278
0.141155
0.136375
0.132121
0.127245
0.122891
0.117955
0.113532
0.108574
0.104114
0.0991754
0.0947175
0.0898414
0.0854302
0.0806679
0.0763539
0.0717603
0.0675986
0.0632311
0.0592781
0.0551927
0.0514889
0.0476929
0.0441686
0.0402493
0.0365745
0.0319122
0.027516
0.0215451
0.0158664
0.00828277
0.00112015
-0.00777546
-0.0161434
-0.0256882
-0.0347773
-0.0444931
-0.0537364
-0.0631417
-0.0715437
-0.0793055
-0.0849326
-0.088567
-0.0896369
-0.0872876
-0.0865637
0.150568
0.154855
0.16357
0.171657
0.179342
0.185816
0.19127
0.195464
0.198573
0.200539
0.201606
0.201563
0.200659
0.198802
0.196062
0.192899
0.189147
0.185756
0.18247
0.180256
0.178933
0.179087
0.180832
0.183265
0.187011
0.190209
0.193391
0.196166
0.198679
0.200767
0.202554
0.20391
0.204932
0.205532
0.205775
0.205616
0.205089
0.204193
0.202931
0.20134
0.199395
0.19717
0.194612
0.191823
0.18873
0.185456
0.18191
0.178228
0.174308
0.170293
0.166072
0.161791
0.157333
0.152843
0.148203
0.143554
0.138777
0.134012
0.129139
0.124295
0.119364
0.114477
0.109524
0.104634
0.099698
0.0948459
0.0899732
0.0852064
0.0804474
0.0758179
0.0712275
0.0667913
0.0624268
0.0582401
0.0541574
0.0502411
0.0464825
0.0426772
0.0387671
0.0345907
0.0299235
0.0247991
0.0188343
0.0123413
0.00478469
-0.00310151
-0.0119307
-0.0208068
-0.0302549
-0.0395904
-0.0491955
-0.0584456
-0.0677273
-0.0759368
-0.0835784
-0.0888784
-0.0924283
-0.0931169
-0.0907495
-0.0898303
0.150356
0.154694
0.163395
0.171769
0.179462
0.186574
0.192065
0.197178
0.20035
0.203361
0.204512
0.205529
0.204727
0.203873
0.201253
0.19897
0.195344
0.192659
0.189484
0.187782
0.186537
0.187018
0.188794
0.191404
0.195148
0.198406
0.201585
0.204345
0.206856
0.208866
0.210651
0.211866
0.212887
0.213285
0.213527
0.213106
0.21258
0.211363
0.210102
0.208135
0.206192
0.20354
0.200984
0.197723
0.194632
0.190848
0.187304
0.183082
0.179165
0.174589
0.170371
0.165517
0.161062
0.155997
0.151361
0.146144
0.141371
0.136054
0.131185
0.125812
0.120884
0.115499
0.110549
0.105194
0.100262
0.0949846
0.0901156
0.0849646
0.0802092
0.0752391
0.0706522
0.0659195
0.0615583
0.0571191
0.0530395
0.0488937
0.045138
0.0410121
0.0371116
0.0323702
0.0277275
0.0217946
0.0158762
0.00848422
0.000999943
-0.00768429
-0.0164177
-0.0258512
-0.0351863
-0.044795
-0.0542734
-0.0635335
-0.072679
-0.0806808
-0.0881923
-0.0931392
-0.0965978
-0.0968566
-0.0944878
-0.0933576
0.151796
0.156134
0.162809
0.171207
0.179045
0.186291
0.192424
0.197752
0.201835
0.205109
0.207218
0.208518
0.208711
0.208146
0.206607
0.204604
0.202062
0.199633
0.19736
0.195869
0.195209
0.195826
0.197585
0.200243
0.203641
0.206908
0.209946
0.212701
0.215097
0.21709
0.218712
0.2199
0.220713
0.221071
0.221063
0.220592
0.219774
0.218497
0.216904
0.214867
0.212554
0.209822
0.20686
0.203512
0.199982
0.196103
0.192092
0.187769
0.183363
0.178682
0.173959
0.168998
0.164032
0.15886
0.153713
0.148391
0.143118
0.137698
0.132347
0.126876
0.121491
0.116014
0.110638
0.105198
0.0998762
0.0945203
0.0893004
0.0840792
0.0790134
0.0739813
0.0691249
0.0643384
0.0597479
0.0552633
0.0509696
0.0467825
0.0427615
0.0385637
0.0341875
0.0293379
0.0240149
0.0179507
0.0112878
0.00377558
-0.00429014
-0.0130506
-0.022111
-0.0315562
-0.0409919
-0.050546
-0.0598814
-0.0690269
-0.0776852
-0.0855245
-0.0921383
-0.0968845
-0.0996834
-0.0998361
-0.0988101
-0.0976472
0.149365
0.153698
0.162414
0.170804
0.179351
0.186596
0.193651
0.199033
0.204209
0.207564
0.210911
0.212315
0.21374
0.213301
0.212822
0.210959
0.209229
0.206935
0.205246
0.20386
0.203604
0.204281
0.206471
0.209138
0.212888
0.216152
0.219213
0.221966
0.224237
0.226228
0.227652
0.228839
0.229385
0.229743
0.2294
0.228929
0.227711
0.226435
0.22438
0.222345
0.219512
0.216782
0.213248
0.209902
0.205754
0.201878
0.197212
0.192893
0.187804
0.183127
0.177706
0.172749
0.167078
0.161911
0.156066
0.150749
0.144794
0.139379
0.133371
0.127906
0.121898
0.116426
0.110468
0.105033
0.0991753
0.0938241
0.0881173
0.0829008
0.0773999
0.0723722
0.0671337
0.0623515
0.0574328
0.0529521
0.0484061
0.0442228
0.040038
0.0358474
0.0311067
0.0262822
0.0202179
0.0142033
0.00658279
-0.000848979
-0.009893
-0.0185414
-0.0283635
-0.0376724
-0.0475125
-0.0569135
-0.0663584
-0.0753362
-0.0840103
-0.0916724
-0.0983965
-0.103028
-0.105525
-0.105632
-0.102386
-0.10122
0.148442
0.152782
0.161519
0.170111
0.178667
0.186508
0.19366
0.199959
0.205282
0.209765
0.213265
0.215899
0.217499
0.218309
0.218027
0.217344
0.2158
0.214501
0.212964
0.212297
0.212151
0.213221
0.215497
0.218268
0.222033
0.225207
0.228268
0.230837
0.233099
0.234839
0.236251
0.237126
0.237656
0.237645
0.237284
0.236391
0.235152
0.233403
0.231324
0.228767
0.225907
0.22261
0.219046
0.215091
0.210912
0.206388
0.201689
0.196693
0.191569
0.186194
0.180737
0.175071
0.169365
0.163489
0.15761
0.151596
0.145607
0.139519
0.13348
0.127374
0.121337
0.115266
0.109281
0.103296
0.0974132
0.0915649
0.0858356
0.0801771
0.0746563
0.0692431
0.0639876
0.0588758
0.0539428
0.0491878
0.0446319
0.0402053
0.0360588
0.0315437
0.026813
0.0214136
0.0153322
0.00853568
0.000910223
-0.00730649
-0.0163252
-0.0255667
-0.0353112
-0.0449199
-0.0546346
-0.0640375
-0.0733284
-0.0820569
-0.0905491
-0.097777
-0.104295
-0.108374
-0.110734
-0.11026
-0.106978
-0.105533
0.148357
0.152694
0.160411
0.169138
0.177701
0.185993
0.193366
0.200403
0.206103
0.211502
0.215442
0.219078
0.221185
0.223018
0.22333
0.22362
0.222701
0.222241
0.221238
0.221197
0.221393
0.222814
0.225095
0.227956
0.23151
0.234613
0.237551
0.239976
0.242123
0.243669
0.244948
0.24558
0.245962
0.245666
0.245142
0.243922
0.242509
0.240394
0.238129
0.235169
0.232111
0.228374
0.224601
0.220173
0.215773
0.210748
0.205817
0.200297
0.194933
0.189017
0.183315
0.1771
0.171147
0.164722
0.158597
0.152044
0.145817
0.139208
0.132942
0.126341
0.120091
0.113557
0.107377
0.100967
0.0949084
0.0886759
0.0827919
0.0767922
0.0711381
0.0654272
0.0600592
0.0546932
0.0496678
0.0447013
0.0400524
0.0354383
0.0311765
0.0263883
0.0214759
0.0156172
0.00933461
0.00193542
-0.00585519
-0.014663
-0.0237273
-0.0333999
-0.043064
-0.0528646
-0.0624086
-0.0717643
-0.080787
-0.0892658
-0.0973404
-0.104161
-0.110086
-0.113657
-0.115574
-0.114648
-0.112183
-0.110541
0.146369
0.150699
0.158963
0.167668
0.176658
0.18494
0.193162
0.200217
0.207108
0.212555
0.217925
0.221638
0.225287
0.227228
0.229075
0.229497
0.229984
0.229661
0.229792
0.229865
0.230794
0.232282
0.234817
0.237687
0.241149
0.244249
0.246918
0.24934
0.251122
0.252666
0.253508
0.25414
0.254022
0.253726
0.252646
0.251428
0.249405
0.247293
0.244368
0.241411
0.237645
0.233913
0.229384
0.22496
0.219761
0.214742
0.208974
0.20346
0.19723
0.191321
0.184735
0.178527
0.171687
0.16527
0.158268
0.151723
0.144645
0.138044
0.130967
0.124373
0.117364
0.110838
0.103959
0.0975562
0.0908666
0.0846411
0.0781971
0.0722041
0.0660622
0.0603576
0.0545736
0.0492135
0.0438423
0.0388813
0.0339646
0.0293556
0.0248577
0.0200829
0.0146942
0.00888907
0.00181269
-0.00548771
-0.0141584
-0.022822
-0.0326049
-0.0420979
-0.0521512
-0.0617522
-0.0713096
-0.080455
-0.0891803
-0.0974406
-0.10503
-0.111635
-0.117059
-0.120452
-0.12182
-0.120816
-0.116893
-0.115247
0.144276
0.148551
0.157125
0.165882
0.174941
0.183646
0.19204
0.19989
0.207014
0.213537
0.219176
0.224155
0.228108
0.231424
0.233595
0.235392
0.236172
0.237062
0.237424
0.238378
0.239462
0.241373
0.244027
0.246886
0.250368
0.253191
0.255833
0.257874
0.259602
0.2607
0.261478
0.261611
0.261419
0.260579
0.259417
0.257614
0.255501
0.252766
0.249744
0.246127
0.242256
0.237827
0.233186
0.228031
0.222714
0.21693
0.21104
0.204735
0.198379
0.191662
0.184948
0.177925
0.170957
0.163733
0.156605
0.149274
0.142075
0.134723
0.12753
0.120234
0.113117
0.105947
0.0989695
0.0919876
0.0852089
0.0784745
0.0719517
0.0655211
0.0593106
0.0532391
0.0473969
0.0417384
0.036319
0.0311252
0.0261803
0.0213802
0.0169339
0.0119024
0.0065288
0.000256553
-0.00687752
-0.0147719
-0.0234918
-0.0326658
-0.0424497
-0.0522061
-0.0621724
-0.071731