/*--------------------------------*- C++ -*----------------------------------*\
| =========                 |                                                 |
| \\      /  F ield         | OpenFOAM: The Open Source CFD Toolbox           |
|  \\    /   O peration     | Version:  v2106                                 |
|   \\  /    A nd           | Website:  www.openfoam.com                      |
|    \\/     M anipulation  |                                                 |
\*---------------------------------------------------------------------------*/
FoamFile
{
    version     2.0;
    format      ascii;
    arch        "LSB;label=32;scalar=64";
    class       volScalarField;
    location    "0";
    object      expGpCoeffs23;
}
// * * * * * * * * * * * * * * * * * * * * * * * * * * * * * * * * * * * * * //

dimensions      [0 0 0 0 0 0 0];

internalField   nonuniform List<scalar> 
8000
(
0.0285049
0.0295483
0.0310375
0.0326624
0.0335876
0.0338269
0.0331513
0.0316716
0.0295817
0.0269159
0.024017
0.0209113
0.017866
0.0149027
0.0122143
0.0097891
0.0077276
0.00601152
0.00461594
0.00353912
0.00268001
0.00204448
0.00152654
0.0011318
0.000798326
0.000527923
0.000315098
0.000161278
8.20607e-05
7.872e-05
0.000160849
0.000328787
0.00058046
0.000915093
0.00131792
0.00178705
0.00229632
0.00284294
0.00339284
0.00394278
0.00445603
0.00492937
0.00532946
0.00565366
0.00587774
0.00600009
0.00600995
0.00590704
0.00569634
0.00537899
0.00497545
0.00448819
0.00395056
0.00336596
0.00277611
0.0021849
0.0016366
0.00113506
0.000720886
0.000397319
0.000195523
0.000117676
0.0001809
0.000385945
0.000733138
0.00122169
0.00183468
0.00256981
0.00339491
0.00430651
0.00526147
0.00625556
0.00724063
0.00821231
0.00914293
0.0100317
0.0109676
0.0119579
0.0132202
0.0147417
0.0166757
0.0190063
0.0216882
0.0247168
0.02783
0.0310346
0.0339352
0.0365164
0.0384256
0.0396363
0.0399231
0.0392769
0.0377251
0.0352103
0.0322203
0.0287248
0.0253473
0.0222651
0.0200317
0.0187606
0.0284209
0.0294641
0.0310739
0.0326993
0.0336605
0.033902
0.0332159
0.0317377
0.0296153
0.0269494
0.0240237
0.0209172
0.0178531
0.0148886
0.0121886
0.00976219
0.00769953
0.00598267
0.00459424
0.00351712
0.00266675
0.0020312
0.00152048
0.00112579
0.000794322
0.000523953
0.000309671
0.00015587
7.53387e-05
7.19985e-05
0.000153765
0.000321681
0.000574129
0.000908719
0.00131345
0.00178253
0.0022946
0.00284115
0.00339436
0.00394423
0.00446076
0.00493404
0.00533681
0.00566098
0.0058867
0.00600903
0.00601917
0.00591627
0.0057044
0.00538709
0.00498105
0.00449385
0.00395274
0.00336822
0.00277439
0.00218326
0.00163102
0.00112954
0.000712054
0.000388528
0.000184507
0.00010667
0.000169103
0.000374122
0.000722109
0.0012106
0.0018259
0.00256093
0.00338956
0.00430104
0.00526028
0.00625424
0.00724375
0.0082153
0.00914661
0.0100353
0.0109559
0.011946
0.0131893
0.014711
0.016642
0.0189731
0.0216672
0.0246967
0.0278396
0.0310447
0.0339795
0.0365603
0.0384953
0.0397044
0.0400054
0.0393565
0.0377934
0.0352753
0.032228
0.0287314
0.0253025
0.0222209
0.0199291
0.0186582
0.0283301
0.0293731
0.0311132
0.032739
0.0337392
0.0339831
0.0332857
0.0318092
0.0296515
0.0269856
0.024031
0.0209236
0.0178391
0.0148734
0.0121608
0.00973313
0.00766921
0.00595152
0.0045708
0.00349337
0.00265244
0.00201685
0.00151393
0.00111929
0.000789997
0.000519666
0.00030381
0.000150031
6.80801e-05
6.47403e-05
0.000146114
0.000314008
0.000567293
0.000901837
0.00130862
0.00177764
0.00229274
0.00283922
0.003396
0.00394579
0.00446586
0.00493907
0.00534476
0.00566888
0.00589637
0.00601869
0.00602912
0.00592624
0.0057131
0.00539583
0.0049871
0.00449997
0.0039551
0.00337066
0.00277252
0.00218147
0.001625
0.00112359
0.000702517
0.000379035
0.000172612
9.47858e-05
0.000156364
0.000361355
0.000710199
0.00119862
0.00181641
0.00255134
0.00338379
0.00429514
0.005259
0.00625283
0.00724712
0.00821854
0.00915059
0.0100392
0.0109432
0.0119332
0.0131561
0.0146778
0.0166057
0.0189372
0.0216446
0.0246749
0.0278499
0.0310557
0.0340273
0.0366077
0.0385705
0.039778
0.0400943
0.0394424
0.0378672
0.0353455
0.0322365
0.0287385
0.0252541
0.0221733
0.0198183
0.0185477
0.0282322
0.0292749
0.0311556
0.032782
0.0338242
0.0340706
0.0333611
0.0318863
0.0296906
0.0270246
0.0240389
0.0209305
0.0178241
0.0148569
0.0121308
0.00970174
0.00763647
0.00591788
0.0045455
0.00346773
0.00263699
0.00200136
0.00150687
0.00111227
0.000785328
0.000515037
0.000297482
0.000143725
6.02419e-05
5.69026e-05
0.000137854
0.000305722
0.000559912
0.000894405
0.00130341
0.00177236
0.00229074
0.00283714
0.00339777
0.00394748
0.00447137
0.00494451
0.00535334
0.00567741
0.00590681
0.00602911
0.00603987
0.00593701
0.00572249
0.00540527
0.00499363
0.00450657
0.00395765
0.00337329
0.00277051
0.00217955
0.00161849
0.00111716
0.000692218
0.000368785
0.000159767
8.19524e-05
0.000142609
0.000347568
0.000697339
0.00118569
0.00180617
0.00254099
0.00337755
0.00428877
0.00525762
0.0062513
0.00725076
0.00822203
0.00915489
0.0100433
0.0109295
0.0119194
0.0131201
0.0146419
0.0165664
0.0188985
0.0216202
0.0246514
0.0278611
0.0310674
0.0340789
0.0366589
0.0386517
0.0398575
0.0401902
0.0395351
0.0379468
0.0354213
0.0322455
0.0287462
0.0252018
0.0221218
0.0196986
0.0184283
0.0281264
0.0291688
0.0312014
0.0328217
0.033916
0.0341651
0.0334425
0.0319696
0.0297328
0.0270668
0.0240474
0.0209379
0.0178079
0.0148392
0.0120984
0.00966786
0.00760111
0.00588155
0.00451817
0.00344004
0.0026203
0.00198463
0.00149924
0.0011047
0.000780285
0.000510038
0.000290648
0.000136916
5.17778e-05
4.84391e-05
0.000128933
0.000296774
0.00055194
0.00088638
0.00129779
0.00176665
0.00228858
0.00283489
0.00339969
0.00394931
0.00447732
0.00495038
0.0053626
0.00568662
0.00591809
0.00604036
0.00605147
0.00594863
0.00573263
0.00541546
0.00500068
0.0045137
0.0039604
0.00337613
0.00276834
0.00217747
0.00161147
0.00111022
0.000681097
0.000357716
0.000145897
6.80944e-05
0.000127754
0.000332681
0.000683452
0.00117172
0.00179511
0.00252981
0.00337082
0.00428189
0.00525612
0.00624964
0.00725469
0.0082258
0.00915953
0.0100478
0.0109147
0.0119045
0.0130813
0.0146032
0.0165241
0.0188567
0.0215938
0.024626
0.0278731
0.0310802
0.0341346
0.0367141
0.0387393
0.0399432
0.0402939
0.0396353
0.0380328
0.0355032
0.0322553
0.0287546
0.0251332
0.0220662
0.0195694
0.0182994
0.0280388
0.0290841
0.0311856
0.0328239
0.0339795
0.0342393
0.0335277
0.0320703
0.0297798
0.0271199
0.024063
0.0209622
0.0178022
0.0148432
0.0120673
0.00963559
0.00756294
0.00584232
0.00448867
0.00341013
0.00260229
0.00196656
0.001491
0.00109651
0.000778198
0.000506561
0.000285401
0.000130729
4.39918e-05
4.02933e-05
0.000120344
0.000288485
0.000544591
0.000879978
0.0012937
0.00176404
0.00228938
0.0028375
0.00340632
0.00395783
0.0044898
0.00496456
0.00538004
0.00570526
0.00593871
0.00606155
0.00607299
0.00596994
0.00575253
0.0054344
0.00501659
0.0045281
0.00397056
0.0033844
0.00277178
0.00217894
0.00160817
0.0011052
0.000672056
0.00034751
0.000132986
5.48207e-05
0.000113514
0.00031901
0.000670744
0.00116054
0.00178673
0.00252385
0.00336915
0.00428331
0.00526273
0.00625974
0.00727016
0.00824483
0.00917937
0.010071
0.0108987
0.0118883
0.0130395
0.0145614
0.0164783
0.0188116
0.0215653
0.0245986
0.0278921
0.0310978
0.0342146
0.0367791
0.0388389
0.0400343
0.0404021
0.0397409
0.0380865
0.0355672
0.0321729
0.0287042
0.024984
0.0219374
0.019429
0.0181628
0.028001
0.029053
0.031154
0.0328263
0.0339821
0.0343073
0.0335974
0.0322086
0.0299212
0.027305
0.0242521
0.0211613
0.0180052
0.0150268
0.0122544
0.00978493
0.00770696
0.00593587
0.0045862
0.00346522
0.00266368
0.00200108
0.00153281
0.00112116
0.000807003
0.000520578
0.000299459
0.000134829
4.81078e-05
4.06855e-05
0.000120721
0.000292236
0.000548293
0.000894003
0.00130765
0.00179405
0.00231929
0.00288702
0.00345573
0.00402759
0.00455946
0.00505227
0.00546767
0.00580585
0.00603926
0.00616793
0.00617936
0.006074
0.00585663
0.00552831
0.00511058
0.0046055
0.00404806
0.00344141
0.0028289
0.00221486
0.00164419
0.00112277
0.000689704
0.000352677
0.000138192
5.61053e-05
0.000114788
0.000326492
0.000678159
0.00118462
0.0018107
0.00257395
0.00341909
0.00436668
0.00534592
0.00638055
0.00739079
0.00840366
0.00933803
0.0102652
0.0110697
0.0120875
0.013211
0.0147753
0.0166786
0.0190617
0.0218101
0.0248667
0.028168
0.0313393
0.0344514
0.0369413
0.0389977
0.0400909
0.0404573
0.0396897
0.0380359
0.0354357
0.0320436
0.0285402
0.0248228
0.0217829
0.0192756
0.0180207
0.0279602
0.0290194
0.0311199
0.0328289
0.033985
0.0343807
0.0336728
0.0323579
0.0300739
0.027505
0.0244562
0.0213762
0.0182244
0.0152251
0.0124563
0.00994619
0.00787111
0.00605422
0.00470641
0.00354574
0.00274513
0.00205303
0.00158507
0.0011522
0.000838109
0.000535714
0.00031464
0.000139256
5.25524e-05
4.11091e-05
0.000121128
0.000296286
0.000552292
0.000909149
0.00132271
0.00182644
0.00235158
0.00294049
0.00350908
0.00410292
0.00463469
0.00514698
0.0055623
0.00591448
0.00614784
0.00628279
0.00629422
0.00618637
0.00596904
0.00562973
0.00521208
0.00468907
0.00413175
0.00350296
0.00289058
0.00225365
0.0016831
0.00114174
0.000708761
0.000358255
0.000143814
5.74924e-05
0.000116163
0.000334571
0.000686167
0.00121062
0.00183657
0.00262805
0.00347302
0.00445671
0.00543575
0.00651101
0.00752104
0.00857517
0.00950935
0.010475
0.0112793
0.0123328
0.0134551
0.0150548
0.0169549
0.0193661
0.0221098
0.02517
0.0284658
0.0316001
0.0347072
0.0371165
0.0391693
0.040152
0.0405168
0.0396344
0.0379813
0.0352936
0.031904
0.0283632
0.0246488
0.021616
0.0191101
0.0178672
0.0279162
0.0289832
0.0310831
0.0328316
0.0339881
0.03446
0.0337541
0.0325192
0.0302387
0.0277209
0.0246766
0.0216083
0.0184611
0.0154391
0.0126744
0.0101203
0.00804836
0.00618202
0.00483621
0.00363269
0.00283309
0.00210913
0.00164149
0.00118572
0.000871698
0.000552058
0.000331032
0.000144037
5.73519e-05
4.15664e-05
0.000121568
0.000300659
0.000556609
0.000925503
0.00133897
0.00186143
0.00238644
0.00299823
0.0035667
0.00418426
0.00471591
0.00524925
0.00566448
0.00603177
0.00626508
0.00640682
0.00641826
0.00630771
0.00609043
0.00573923
0.00532168
0.00477932
0.00422212
0.00356944
0.00295719
0.00229553
0.00172511
0.00116222
0.00072934
0.000364279
0.000149885
5.89903e-05
0.000117648
0.000343295
0.000694814
0.0012387
0.00186451
0.00268647
0.00353125
0.00455393
0.00553276
0.00665189
0.0076617
0.00876037
0.00969435
0.0107015
0.0115057
0.0125977
0.0137187
0.0153565
0.0172533
0.0196949
0.0224334
0.0254976
0.0287875
0.0318817
0.0349834
0.0373056
0.0393545
0.0402179
0.0405811
0.0395747
0.0379223
0.0351403
0.0317532
0.028172
0.0244608
0.0214358
0.0189313
0.0177014
0.0278686
0.028944
0.0310433
0.0328346
0.0339914
0.0345456
0.033842
0.0326933
0.0304168
0.027954
0.0249146
0.021859
0.0187167
0.0156703
0.01291
0.0103084
0.00823977
0.00632003
0.00497637
0.00372658
0.00292806
0.0021697
0.00170243
0.00122191
0.000907968
0.000569707
0.000348734
0.000149199
6.25345e-05
4.20603e-05
0.000122043
0.000305382
0.000561271
0.000943164
0.00135653
0.0018992
0.0024241
0.00306058
0.00362891
0.0042721
0.00480363
0.00535969
0.00577481
0.00615843
0.00639169
0.00654076
0.00655219
0.00643874
0.00622151
0.00585749
0.00544003
0.00487678
0.00431971
0.00364122
0.00302911
0.00234076
0.00177047
0.00118434
0.000751562
0.000370784
0.000156441
6.06079e-05
0.000119252
0.000352715
0.000704151
0.00126902
0.00189468
0.00274956
0.00359414
0.00465891
0.0056375
0.00680401
0.00781358
0.00896036
0.00989412
0.0109461
0.01175
0.0128838
0.0140033
0.0156824
0.0175756
0.0200499
0.0227828
0.0258514
0.0291348
0.0321858
0.0352816
0.0375098
0.0395546
0.0402892
0.0406505
0.0395103
0.0378587
0.0349747
0.0315904
0.0279656
0.0242579
0.0212412
0.0187383
0.0175225
0.0278173
0.0289017
0.0310004
0.0328379
0.033995
0.0346381
0.0339368
0.0328813
0.0306091
0.0282058
0.0251716
0.0221297
0.0189927
0.0159199
0.0131643
0.0105114
0.00844646
0.00646905
0.00512772
0.00382797
0.00303062
0.00223511
0.00176822
0.001261
0.000947135
0.000588766
0.000367849
0.000154773
6.8131e-05
4.25936e-05
0.000122556
0.000310481
0.000566305
0.000962234
0.0013755
0.00193999
0.00246475
0.0031279
0.00369609
0.00436696
0.00489835
0.00547894
0.00589396
0.00629521
0.0065284
0.00668539
0.00669682
0.00658023
0.00636306
0.00598518
0.00556783
0.00498201
0.00442508
0.00371873
0.00310678
0.0023896
0.00181945
0.00120823
0.000775558
0.000377808
0.00016352
6.23545e-05
0.000120983
0.000362888
0.000714234
0.00130176
0.00192727
0.00281768
0.00366204
0.00477227
0.00575061
0.00696828
0.00797759
0.00917632
0.0101098
0.0112102
0.0120139
0.0131927
0.0143107
0.0160343
0.0179235
0.0204333
0.0231602
0.0262334
0.0295099
0.0325142
0.0356037
0.0377304
0.0397706
0.0403661
0.0407255
0.0394407
0.0377899
0.0347958
0.0314145
0.0277427
0.0240388
0.0210311
0.0185298
0.0173292
0.0277618
0.0288561
0.030954
0.0328413
0.0339989
0.0347379
0.0340393
0.0330844
0.0308167
0.0284776
0.0254492
0.0224219
0.0192907
0.0161894
0.0134389
0.0107307
0.00866965
0.00662997
0.00529116
0.00393745
0.00314136
0.00230575
0.00183927
0.0013032
0.000989428
0.000609346
0.00038849
0.000160792
7.41742e-05
4.31695e-05
0.00012311
0.000315988
0.000571741
0.000982827
0.00139598
0.00198404
0.00250866
0.0032006
0.00376864
0.00446938
0.00500062
0.00560772
0.00602262
0.0064429
0.00667603
0.00684157
0.006853
0.00673302
0.00651591
0.00612307
0.00570583
0.00509565
0.00453888
0.00380243
0.00319065
0.00244234
0.00187235
0.00123402
0.000801469
0.000385393
0.000171164
6.42406e-05
0.000122853
0.000373873
0.000725122
0.00133712
0.00196245
0.00289124
0.00373537
0.00489468
0.00587276
0.00714566
0.0081547
0.00940952
0.0103428
0.0114954
0.0122989
0.0135263
0.0146426
0.0164143
0.0182993
0.0208472
0.0235677
0.0266459
0.0299149
0.0328688
0.0359514
0.0379686
0.0400038
0.0404492
0.0408064
0.0393655
0.0377157
0.0346027
0.0312247
0.027502
0.0238021
0.0208043
0.0183047
0.0171205
0.0277744
0.0288729
0.030828
0.0327427
0.0339589
0.0347628
0.0341811
0.0332905
0.0311122
0.0288196
0.0258534
0.0228327
0.0197299
0.016601
0.0138272
0.0110813
0.00896579
0.00689021
0.00549863
0.00411153
0.00327948
0.00241383
0.00192976
0.00136957
0.00104631
0.000651214
0.000417579
0.000179768
8.6502e-05
5.17098e-05
0.000131738
0.00032803
0.000590855
0.00101241
0.00143885
0.0020432
0.0025856
0.00329743
0.00388527
0.00460666
0.00515686
0.00578224
0.00621241
0.00664584
0.00688823
0.00705966
0.00707286
0.00695054
0.00672735
0.0063242
0.00589393
0.0052669
0.00469211
0.00393488
0.00330288
0.00253307
0.00194397
0.00128692
0.00083966
0.000410927
0.000189286
7.8378e-05
0.000138937
0.000396249
0.000759735
0.00138864
0.0020362
0.00299149
0.0038663
0.00505953
0.00607415
0.00738523
0.00843338
0.00972696
0.0107013
0.0118901
0.0126954
0.0139639
0.015103
0.0168992
0.0188345
0.0213832
0.0241474
0.0272036
0.0304683
0.0333801
0.0363818
0.0383262
0.0402348
0.0405717
0.0408099
0.0392522
0.0375014
0.0342883
0.0308793
0.0270881
0.0234377
0.0204175
0.0180679
0.0168931
0.0278678
0.028966
0.0306878
0.0326004
0.0338963
0.034699
0.0343734
0.0334882
0.0315842
0.029304
0.0264966
0.0234914
0.0204192
0.0173058
0.0144631
0.0117304
0.00948028
0.00741384
0.0058686
0.00448645
0.00352279
0.00265911
0.00207656
0.00151674
0.00112946
0.000734491
0.000462169
0.000224435
0.000111057
7.62754e-05
0.000156616
0.000352844
0.000637159
0.00105858
0.00152537
0.00212952
0.00272589
0.0034375
0.00408542
0.00480657
0.00541425
0.00603943
0.00651591
0.0069492
0.00721961
0.00739099
0.0074095
0.00728723
0.00704561
0.00664259
0.00617275
0.00554592
0.0049164
0.00415941
0.00346607
0.00269651
0.0020494
0.00139256
0.000900689
0.000472095
0.000227972
0.000117099
0.000183556
0.000440785
0.000841416
0.00147012
0.00218512
0.00314011
0.00410798
0.00530083
0.0064263
0.00773695
0.00890373
0.0101969
0.0112958
0.0124842
0.0134459
0.0147131
0.0160126
0.0178018
0.0198455
0.0223808
0.0251655
0.0282036
0.0313415
0.0342351
0.0369648
0.0388959
0.0404371
0.0407688
0.0406141
0.0390607
0.037017
0.0338161
0.030353
0.026574
0.023006
0.0199917
0.0178194
0.0166452
0.0279383
0.0290363
0.0305812
0.0324914
0.0338843
0.0346844
0.034581
0.0337017
0.0320939
0.029827
0.0271912
0.0242026
0.0211637
0.0180669
0.0151498
0.0124312
0.0100358
0.00797929
0.0062681
0.0048913
0.00378552
0.00292397
0.00223509
0.00167567
0.00121925
0.000824417
0.000510319
0.000272667
0.000137571
0.000102802
0.000183479
0.00037964
0.00068716
0.00110843
0.0016188
0.00222274
0.00287739
0.00358875
0.00430155
0.00502245
0.0056922
0.00631716
0.00684363
0.00727678
0.00757745
0.00774878
0.00777303
0.0076508
0.00738927
0.0069864
0.00647383
0.00584722
0.0051586
0.00440188
0.00364228
0.00287299
0.00216325
0.00150664
0.000966591
0.000538146
0.000269746
0.000158911
0.000231738
0.000488878
0.000929618
0.0015581
0.00234594
0.00330059
0.00436896
0.00556139
0.00680656
0.00811676
0.00941163
0.0107043
0.0119378
0.0131257
0.0142564
0.015522
0.0169948
0.0187765
0.0209372
0.0234581
0.0262649
0.0292835
0.0322844
0.0351584
0.0375943
0.0395112
0.0406556
0.0409816
0.0404026
0.038854
0.0364939
0.0333062
0.0297758
0.0260098
0.0224323
0.0194237
0.0175188
0.0163452
0.0275286
0.0286258
0.0305479
0.0324575
0.0341895
0.034999
0.0352043
0.034344
0.0328789
0.0306341
0.0280349
0.0250669
0.0219399
0.0188605
0.0157737
0.0130676
0.0104905
0.00844151
0.00657939
0.00520646
0.00399119
0.00313125
0.002367
0.00180795
0.00128629
0.000891609
0.000521568
0.000284006
0.000115637
8.08812e-05
0.000159089
0.000355176
0.000693237
0.00111435
0.00168547
0.00228919
0.00302708
0.00373817
0.00454495
0.00526558
0.00602608
0.00665081
0.00725085
0.00768383
0.00802923
0.00820049
0.00823323
0.00811105
0.00781991
0.00741718
0.0068409
0.00621452
0.00543739
0.00468095
0.00382143
0.00305243
0.0022469
0.00159053
0.00097447
0.000546186
0.000235189
0.000124397
0.000197775
0.000454818
0.000943726
0.00157197
0.00245406
0.00340836
0.00460964
0.00580163
0.00720594
0.00851565
0.00998015
0.0112724
0.0126593
0.0138469
0.0150763
0.0163405
0.0179109
0.0196857
0.0219756
0.0244831
0.027403
0.0304014
0.0334326
0.0362823
0.038586
0.0404796
0.0413003
0.0416088
0.0405929
0.0390363
0.0362359
0.0330532
0.0290986
0.0253486
0.0216105
0.018613
0.0166738
0.0155016
0.0270887
0.028186
0.0304595
0.0323808
0.034506
0.0353026
0.0358803
0.0350412
0.0337481
0.0315274
0.0289531
0.0260075
0.0227765
0.0197156
0.0164357
0.0137429
0.0109581
0.00891716
0.00689058
0.00552183
0.00419502
0.00333683
0.0025021
0.00194344
0.00135708
0.000962557
0.000531526
0.00029406
8.92341e-05
5.44922e-05
0.000129882
0.000325889
0.000697224
0.00111816
0.00175564
0.00235911
0.00318797
0.00389878
0.00480832
0.00552866
0.00638844
0.00701291
0.00769344
0.00812624
0.00852058
0.00869177
0.00873381
0.00861168
0.00828813
0.00788556
0.00723952
0.0066134
0.00573937
0.00498324
0.00401428
0.00324559
0.0023351
0.001679
0.000979578
0.000551467
0.000193593
8.28454e-05
0.00015648
0.000413418
0.000954601
0.00158259
0.0025673
0.00352121
0.00486733
0.00605883
0.00763661
0.00894578
0.0105951
0.0118868
0.01344
0.0146271
0.0159514
0.017214
0.0188665
0.0206339
0.0230681
0.0255612
0.0286241
0.0316009
0.0346854
0.0375087
0.0396762
0.0415442
0.0420272
0.0423164
0.040836
0.0392702
0.0359601
0.0327821
0.0283717
0.0246327
0.0207644
0.0177762
0.0157661
0.0145952
0.0267713
0.0278866
0.0301577
0.0322147
0.0343373
0.0354368
0.0360605
0.0355352
0.0343004
0.0323173
0.0297649
0.026926
0.0237053
0.0206184
0.0173346
0.0145188
0.0117169
0.00951042
0.00746547
0.00593944
0.00459715
0.00361584
0.00277281
0.00211954
0.00153135
0.00105503
0.000619431
0.000323972
0.000116396
5.4678e-05
0.000129819
0.000334294
0.000708064
0.00117236
0.00181473
0.00249064
0.00332624
0.00412818
0.00504535
0.00586198
0.00672913
0.00744047
0.00812697
0.00862385
0.00902184
0.00922431
0.00926705
0.00913836
0.00881242
0.00836618
0.00771498
0.00701449
0.00613329
0.00528333
0.00430626
0.0034388
0.00252052
0.00177653
0.00107091
0.000580816
0.000219442
8.49093e-05
0.000158531
0.000437709
0.000982734
0.00168132
0.00267361
0.00374294
0.00509976
0.00644242
0.00803304
0.00951565
0.0111787
0.01265
0.0142155
0.0155721
0.0169027
0.0183006
0.0199601
0.0218358
0.0242853
0.0268271
0.0298964
0.0327989
0.0358657
0.0384531
0.0405755
0.042069
0.042504
0.0423552
0.0408225
0.0388562
0.0354795
0.0320359
0.0276105
0.0237878
0.0199364
0.0170242
0.015019
0.0139117
0.0264286
0.0275632
0.0298317
0.0320353
0.0341551
0.0355817
0.0362111
0.0360672
0.0348476
0.0331522
0.0306208
0.0279093
0.0247111
0.0215917
0.0183286
0.0153623
0.0125765
0.0101666
0.00813191
0.00640926
0.00507214
0.00393186
0.00309051
0.00231563
0.00172773
0.00115621
0.000720819
0.000357868
0.00015039
5.72814e-05
0.000132386
0.000346724
0.000720317
0.00123508
0.00187714
0.00263737
0.00347257
0.00438059
0.00529732
0.00622604
0.00709278
0.00790522
0.0085914
0.00916286
0.00956065
0.00979953
0.00984225
0.00970592
0.00938014
0.00888307
0.00823217
0.00744513
0.00656434
0.00560517
0.00462857
0.00364614
0.0027283
0.001882
0.00117672
0.000614491
0.000253288
9.1067e-05
0.000164653
0.000469718
0.00101449
0.00179526
0.00278708
0.00399073
0.00534691
0.0068655
0.00845536
0.0101398
0.0118021
0.0134824
0.0150472
0.0166012
0.0179311
0.0195031
0.021157
0.0231735
0.0256087
0.0282135
0.0312612
0.0340771
0.0371193
0.0394251
0.0415263
0.0425692
0.0429918
0.0423128
0.0407795
0.0383244
0.0349593
0.0311938
0.0267885
0.0228753
0.0190423
0.0162122
0.0142123
0.0131736
0.0260586
0.0272141
0.0294797
0.0318416
0.0339583
0.0357383
0.0363737
0.0366415
0.0354385
0.0340538
0.031545
0.0289711
0.0257971
0.0226427
0.0194019
0.0162731
0.0135047
0.0108751
0.00885156
0.00691659
0.00558506
0.00427312
0.00343356
0.00252738
0.00193979
0.00126547
0.000830302
0.000394471
0.000187099
6.00927e-05
0.000135159
0.000360146
0.000733548
0.0013028
0.00194453
0.00279582
0.00363059
0.00465315
0.00556942
0.00661917
0.00748546
0.00840708
0.00909291
0.0097449
0.0101425
0.0104207
0.0104634
0.0103188
0.00999318
0.00944122
0.00879066
0.00791014
0.0070298
0.00595271
0.00497661
0.00387004
0.00295267
0.0019959
0.00129098
0.000650854
0.000289837
9.77163e-05
0.000171265
0.000504284
0.00104877
0.00191828
0.0029096
0.00425831
0.0056138
0.00732236
0.00891141
0.0108139
0.0124753
0.0143813
0.0159453
0.0177125
0.0190416
0.0208016
0.0224495
0.0246181
0.0270379
0.0297106
0.0327349
0.0354575
0.038473
0.0404747
0.0425529
0.0431093
0.0435184
0.0422671
0.040733
0.0377502
0.0343977
0.0302845
0.0259009
0.0218901
0.0180768
0.0153354
0.0133412
0.0123766
0.0258186
0.0269793
0.0289544
0.0313528
0.0335218
0.0354354
0.0363384
0.0367796
0.0359352
0.034689
0.0324627
0.02996
0.0269511
0.0237989
0.0205974
0.0174163
0.0145708
0.01186
0.00969115
0.00767014
0.00618585
0.00479741
0.0038291
0.00286284
0.00218234
0.00146814
0.000964885
0.00050077
0.000251473
0.000111284
0.000172758
0.000401822
0.000791183
0.0013815
0.00206586
0.00295237
0.00384977
0.00491666
0.00590596
0.00700257
0.00794124
0.00890514
0.00965176
0.0103349
0.0107726
0.011066
0.011122
0.0109743
0.0106334
0.0100602
0.00936798
0.00845131
0.00750951
0.00638679
0.00533897
0.00418435
0.0031965
0.00219696
0.00143467
0.00076439
0.000369813
0.000166089
0.000238065
0.000581873
0.00116133
0.00206517
0.0031284
0.00453324
0.00599373
0.00777581
0.00949525
0.0114821
0.0132886
0.0152821
0.017004
0.0188537
0.0203635
0.0222087
0.0239975
0.0262289
0.0286688
0.0313577
0.0342418
0.0369098
0.0396034
0.0414665
0.0431159
0.043465
0.0434537
0.0419677
0.0401
0.0369085
0.0333946
0.0291558
0.0248782
0.0208583
0.0172403
0.0145395
0.0126669
0.0117278
0.0253518
0.0265114
0.0283481
0.0307383
0.0331446
0.0350481
0.0363858
0.0368287
0.0365185
0.0352883
0.0334951
0.0310173
0.0282212
0.0250972
0.0218925
0.0187378
0.0157242
0.0130333
0.0106038
0.00859474
0.00684087
0.00545766
0.00425486
0.0032897
0.00243225
0.00171848
0.00109241
0.000628567
0.00030155
0.000161445
0.000197948
0.000426874
0.000846908
0.00143687
0.00220256
0.00308854
0.00410547
0.00517173
0.00630058
0.00739654
0.00847353
0.00943686
0.0102995
0.0109822
0.0114959
0.0117891
0.0118696
0.0117219
0.0113501
0.0107772
0.0100035
0.00908733
0.00802572
0.00690367
0.00571619
0.00456226
0.00343687
0.00243792
0.00156281
0.000892927
0.000430555
0.000226952
0.000291589
0.000635192
0.00127628
0.00217958
0.00337391
0.0047779
0.00643123
0.00821225
0.0101713
0.0121569
0.0142293
0.0162215
0.0182204
0.020069
0.0218769
0.0237191
0.0257588
0.0279766
0.0304768
0.033142
0.0358393
0.0384789
0.0407118
0.0425516
0.0435425
0.0438814
0.0431383
0.0416584
0.0391566
0.0359871
0.0321225
0.0279163
0.023598
0.0196072
0.0160773
0.0133897
0.0118334
0.0108958
0.0242272
0.025385
0.027629
0.0300269
0.0329687
0.0348751
0.0369497
0.0373971
0.0376197
0.0364209
0.0349094
0.0324662
0.0297048
0.0266127
0.0232201
0.0200924
0.0167706
0.0140979
0.0113643
0.00936536
0.0073703
0.0059916
0.00462029
0.00365623
0.00263929
0.00192562
0.00114373
0.000679915
0.000248126
0.000107949
0.000111285
0.000340036
0.000804189
0.00139387
0.00227526
0.00316089
0.00434823
0.0054141
0.00674236
0.00783794
0.00911266
0.0100757
0.0111036
0.0117862
0.0124069
0.0127001
0.0128126
0.012665
0.0122447
0.0116722
0.0107764
0.00986063
0.00862142
0.00749979
0.00610563
0.00495211
0.00362229
0.00262367
0.00157848
0.000908773
0.000339325
0.000135727
0.000177827
0.000521217
0.0012359
0.00213878
0.00350277
0.00490617
0.00681342
0.00859374
0.0108687
0.0128536
0.0152739
0.0172655
0.0195919
0.0214399
0.0234546
0.0252936
0.0274739
0.0296783
0.0323302
0.0349709
0.0376936
0.0403002
0.0422995
0.0441055
0.0445429
0.0448617
0.0433657
0.0418776
0.0385947
0.0354359
0.030886
0.0267143
0.0219706
0.0180083
0.0145481
0.0118963
0.0104368
0.009507
0.0233142
0.0244567
0.0266943
0.029214
0.0321398
0.0344696
0.0365357
0.0375973
0.0378446
0.0372235
0.0357389
0.0337046
0.0309743
0.0280575
0.0246946
0.0215133
0.0182078
0.0153213
0.0125913
0.0103147
0.0083155
0.00667256
0.00529803
0.00410644
0.00309299
0.00217897
0.00139764
0.000781093
0.000349606
0.000120315
0.000123649
0.00033677
0.0008006
0.00144799
0.00232876
0.00333491
0.00452143
0.00575113
0.00707846
0.00835547
0.00962931
0.0107633
0.0117906
0.0126077
0.013228
0.013599
0.0137114
0.0135733
0.0131533
0.0125207
0.0116256
0.0105893
0.00935095
0.00806638
0.00667319
0.00533879
0.00400989
0.00284014
0.00179568
0.000991906
0.000422854
0.000145776
0.000187848
0.000535099
0.00124929
0.00224124
0.00360428
0.00517994
0.00708586
0.00910982
0.0113832
0.0136629
0.0160816
0.0183931
0.0207179
0.0228775
0.0249037
0.0269783
0.0291619
0.0314618
0.0341069
0.0366175
0.0393177
0.041511
0.0434712
0.0446186
0.0450242
0.0445737
0.0430708
0.0408838
0.037609
0.03397
0.0294402
0.025098
0.0203948
0.0165542
0.0131237
0.0107152
0.00926315
0.00845866
0.0223283
0.0234543
0.0256838
0.0283362
0.0312447
0.0340318
0.0360886
0.0378134
0.0380682
0.0380873
0.0366244
0.0350418
0.0323419
0.0296176
0.0262875
0.023047
0.0197705
0.0166462
0.0139368
0.0113487
0.00936088
0.00741641
0.0060459
0.00459557
0.00358291
0.00245256
0.00167181
0.000890349
0.000459187
0.000133668
0.000136999
0.000333245
0.000796725
0.00150642
0.00238653
0.00352284
0.00470846
0.00611506
0.00744139
0.00891432
0.0101872
0.0115059
0.0125324
0.0134948
0.0141146
0.0145697
0.0146819
0.0145542
0.0141345
0.013437
0.0125425
0.0113761
0.0101387
0.00867821
0.00728607
0.00575634
0.00442845
0.00307389
0.00203022
0.00108168
0.000513053
0.000156628
0.000198668
0.000550089
0.00126374
0.00235188
0.0037139
0.00547557
0.00738005
0.0096671
0.0119387
0.0145369
0.0169537
0.0196108
0.0219338
0.02443
0.0264545
0.0287967
0.0309714
0.0333841
0.0360086
0.038379
0.041052
0.0427921
0.0447279
0.0451503
0.0455439
0.0442494
0.0427523
0.0397926
0.0365419
0.0323698
0.027879
0.0233527
0.0186932
0.014984
0.0115856
0.00944551
0.00799577
0.00732663
0.0215731
0.0226943
0.0245268
0.027175
0.0300198
0.0328669
0.035205
0.037051
0.037934
0.0380856
0.0372855
0.0358101
0.0336397
0.0309792
0.0279661
0.0247405
0.0215223
0.0183715
0.0154956
0.0128544
0.0105858
0.00857706
0.00690449
0.00539438
0.00413997
0.00296889
0.00201138
0.00119881
0.000644531
0.000300771
0.0002381
0.000430977
0.000888989
0.00161017
0.00254105
0.00370156
0.0049829
0.0064225
0.00787285
0.00938238
0.0107879
0.0121412
0.013289
0.0142786
0.0149909
0.0154617
0.0156245
0.0154988
0.0150809
0.0143715
0.0134306
0.01224
0.0109152
0.00942188
0.00791466
0.00634849
0.0048953
0.0035062
0.00234646
0.00137079
0.000714321
0.000342907
0.000341583
0.000693567
0.00141991
0.00252579
0.00396221
0.00575839
0.007798
0.010134
0.0125939
0.0152515
0.0178965
0.020618
0.0232066
0.0257656
0.0281145
0.0305169
0.0328724
0.0353033
0.0377452
0.0400708
0.0421946
0.0438276
0.0449589
0.0452302
0.0448035
0.0433488
0.0412179
0.0381276
0.0345461
0.0303033
0.0258842
0.0213625
0.0171554
0.0135129
0.0105088
0.00841071
0.00711007
0.00646291
0.0197066
0.0208248
0.0228356
0.0254678
0.0288565
0.0316699
0.0349102
0.0367514
0.0385111
0.0386811
0.0386102
0.037168
0.0354363
0.0328161
0.0298889
0.0267024
0.0232835
0.0201631
0.0169385
0.0143162
0.0116745
0.00967493
0.00767888
0.00617108
0.00460792
0.00343787
0.00219273
0.00138086
0.000616298
0.00027284
0.000108145
0.000300852
0.000774866
0.00149541
0.00255361
0.0037131
0.0052105
0.00664883
0.00836877
0.00987696
0.0115631
0.0129152
0.0143114
0.0153001
0.016191
0.0166614
0.0169065
0.0167809
0.0163374
0.0156285
0.0145581
0.0133686
0.0118295
0.0103375
0.00856223
0.00699744
0.00526121
0.00387334
0.00245708
0.00148227
0.000634878
0.00026379
0.000168976
0.000520651
0.00127169
0.00237659
0.0039629
0.00575749
0.00806453
0.0103985
0.0132218
0.015877
0.0189487
0.0216678
0.0246922
0.027249
0.0299317
0.0323295
0.0348654
0.0372804
0.039682
0.0419819
0.0437182
0.0453239
0.0456941
0.0459489
0.0445174
0.043067
0.0399365
0.0368735
0.0325256
0.0283312
0.0234905
0.0190316
0.0147672
0.0111643
0.00853759
0.00646676
0.00559787
0.00495291
0.0180689
0.0191062
0.0211121
0.0237342
0.0270953
0.0302651
0.033535
0.0360524
0.0378828
0.038876
0.0388602
0.0381744
0.036493
0.0344059
0.0315198
0.0285636
0.0251591
0.0219771
0.0187433
0.0158617
0.0131981
0.0108618
0.00884484
0.00699941
0.00542229
0.00393652
0.00267576
0.0016078
0.000831597
0.000315299
0.000144855
0.000262597
0.000737311
0.0014828
0.0025478
0.00382134
0.00533045
0.00694992
0.00868453
0.010411
0.0121125
0.0136862
0.015096
0.0162771
0.0171778
0.0177838
0.0180335
0.0179682
0.0175234
0.0167917
0.0157143
0.0144225
0.0128717
0.0112125
0.00942259