/*--------------------------------*- C++ -*----------------------------------*\
| =========                 |                                                 |
| \\      /  F ield         | OpenFOAM: The Open Source CFD Toolbox           |
|  \\    /   O peration     | Version:  v2106                                 |
|   \\  /    A nd           | Website:  www.openfoam.com                      |
|    \\/     M anipulation  |                                                 |
\*---------------------------------------------------------------------------*/
FoamFile
{
    version     2.0;
    format      ascii;
    arch        "LSB;label=32;scalar=64";
    class       volScalarField;
    location    "0";
    object      expGpCoeffs11;
}
// * * * * * * * * * * * * * * * * * * * * * * * * * * * * * * * * * * * * * //

dimensions      [0 0 0 0 0 0 0];

internalField   nonuniform List<scalar> 
8000
(
0.100036
0.0977853
0.093055
0.0855553
0.0751604
0.0624639
0.0486385
0.0338166
0.0199873
0.00704761
-0.00368118
-0.012118
-0.01776
-0.0205868
-0.0207441
-0.0183162
-0.0141224
-0.00820658
-0.00169483
0.00538952
0.0122295
0.0187693
0.0249012
0.0305629
0.0361805
0.0417803
0.0476769
0.0538772
0.060405
0.0672544
0.0743628
0.0817222
0.0892495
0.0969348
0.104677
0.112466
0.120186
0.127827
0.135267
0.142494
0.149387
0.155935
0.162023
0.16764
0.172685
0.17715
0.18095
0.18408
0.186481
0.188147
0.189046
0.189176
0.188533
0.187116
0.184951
0.18204
0.178433
0.174138
0.169228
0.163712
0.157683
0.151153
0.144229
0.136924
0.129354
0.121532
0.113577
0.105502
0.0974229
0.089352
0.0813967
0.0735679
0.0659602
0.0585828
0.0514485
0.0445539
0.0376126
0.0306011
0.0230887
0.0151504
0.00686474
-0.00170323
-0.0097507
-0.0172549
-0.0230444
-0.027084
-0.0284343
-0.0270074
-0.0225132
-0.0149601
-0.00475434
0.00802648
0.0220189
0.0373344
0.0517623
0.0651531
0.0761366
0.0840659
0.0890533
0.0914159
0.100217
0.097967
0.093297
0.0858007
0.0753469
0.0626522
0.0486485
0.0338205
0.0198573
0.00690832
-0.00388788
-0.0123333
-0.0179891
-0.0208227
-0.0209324
-0.0185083
-0.0142171
-0.00830229
-0.00169916
0.00538514
0.0122743
0.0188138
0.0249263
0.0305874
0.0361609
0.04176
0.0476488
0.0538483
0.0603816
0.0672301
0.074346
0.0817045
0.089241
0.0969253
0.104678
0.112466
0.120198
0.127838
0.135289
0.142516
0.149421
0.155968
0.162066
0.167682
0.172736
0.1772
0.181007
0.184137
0.186542
0.188208
0.189109
0.189239
0.188595
0.187178
0.185009
0.182099
0.178486
0.174191
0.169273
0.163758
0.157719
0.151189
0.144255
0.13695
0.129369
0.121548
0.113581
0.105507
0.0974172
0.0893473
0.0813819
0.0735541
0.0659376
0.0585612
0.0514313
0.0445375
0.0376383
0.0306277
0.0231355
0.0151976
0.00686415
-0.00170383
-0.00984291
-0.0173464
-0.0232396
-0.0272757
-0.0286858
-0.0272522
-0.0227563
-0.015194
-0.00492574
0.00786528
0.0220019
0.0373244
0.051956
0.0653449
0.0763989
0.0843245
0.0892441
0.0916062
0.100413
0.0981632
0.0935584
0.0860658
0.0755482
0.0628555
0.0486594
0.0338247
0.0197169
0.00675792
-0.00411108
-0.0125658
-0.0182364
-0.0210774
-0.0211357
-0.0187158
-0.0143194
-0.00840565
-0.00170384
0.00538041
0.0123227
0.0188619
0.0249535
0.0306139
0.0361398
0.0417381
0.0476185
0.053817
0.0603563
0.0672038
0.0743278
0.0816853
0.0892318
0.096915
0.10468
0.112466
0.12021
0.127849
0.135314
0.142539
0.149456
0.156002
0.162112
0.167727
0.172791
0.177254
0.181069
0.184198
0.186608
0.188274
0.189177
0.189307
0.188661
0.187245
0.185072
0.182162
0.178543
0.174249
0.169322
0.163807
0.157758
0.151229
0.144283
0.136979
0.129385
0.121565
0.113586
0.105513
0.097411
0.0893422
0.0813659
0.0735392
0.0659132
0.0585378
0.0514126
0.0445198
0.0376661
0.0306564
0.023186
0.0152486
0.00686352
-0.00170447
-0.00994248
-0.0174451
-0.0234505
-0.0274827
-0.0289574
-0.0275165
-0.0230187
-0.0154466
-0.00511083
0.0076912
0.0219835
0.0373136
0.0521651
0.0655521
0.076682
0.0846037
0.0894501
0.0918116
0.100624
0.0983751
0.0938406
0.0863521
0.0757655
0.0630751
0.0486712
0.0338293
0.0195653
0.0065955
-0.00435211
-0.0128169
-0.0185036
-0.0213524
-0.0213552
-0.0189398
-0.0144298
-0.00851726
-0.00170889
0.0053753
0.012375
0.0189138
0.0249829
0.0306424
0.036117
0.0417145
0.0475857
0.0537833
0.060329
0.0671755
0.0743082
0.0816646
0.0892219
0.096904
0.104681
0.112466
0.120224
0.127862
0.13534
0.142564
0.149495
0.15604
0.162162
0.167776
0.172851
0.177313
0.181136
0.184265
0.18668
0.188345
0.18925
0.18938
0.188733
0.187318
0.185141
0.182231
0.178605
0.174311
0.169374
0.16386
0.1578
0.151272
0.144313
0.13701
0.129402
0.121583
0.113591
0.105519
0.0974043
0.0893367
0.0813486
0.0735231
0.0658869
0.0585126
0.0513925
0.0445007
0.0376961
0.0306874
0.0232405
0.0153036
0.00686283
-0.00170516
-0.01005
-0.0175518
-0.0236781
-0.0277063
-0.0292508
-0.027802
-0.023302
-0.0157193
-0.0053107
0.00750323
0.0219636
0.0373019
0.0523909
0.0657757
0.0769878
0.0849052
0.0896725
0.0920335
0.100852
0.0986039
0.0941454
0.086678
0.0760003
0.0633121
0.0486839
0.0338343
0.0194016
0.00642012
-0.00461237
-0.013088
-0.018792
-0.0216493
-0.0215923
-0.0191817
-0.014549
-0.00863778
-0.00171434
0.00536978
0.0124314
0.0189698
0.0250146
0.0306733
0.0360923
0.0416889
0.0475503
0.0537469
0.0602995
0.0671449
0.074287
0.0816422
0.0892112
0.096892
0.104682
0.112466
0.120239
0.127875
0.135369
0.142592
0.149537
0.156081
0.162216
0.167829
0.172915
0.177376
0.181208
0.184336
0.186757
0.188422
0.189329
0.189459
0.188811
0.187396
0.185214
0.182305
0.178671
0.174378
0.169431
0.163918
0.157845
0.151318
0.144345
0.137044
0.129421
0.121604
0.113596
0.105526
0.0973971
0.0893308
0.08133
0.0735057
0.0658585
0.0584854
0.0513707
0.04448
0.0377284
0.0307209
0.0232994
0.0153631
0.00686208
-0.00170591
-0.0101661
-0.017667
-0.023924
-0.0279477
-0.0295675
-0.0281102
-0.023608
-0.0160139
-0.00552652
0.00730025
0.0219421
0.0372893
0.0526347
0.0660173
0.077339
0.0852307
0.0899127
0.092273
0.101129
0.0988933
0.0945094
0.0871338
0.0763314
0.0637776
0.0487609
0.0339964
0.0192372
0.00626898
-0.00486458
-0.0133318
-0.0190714
-0.0219347
-0.0218442
-0.0194438
-0.0146778
-0.00876792
-0.00172023
0.00536382
0.0124923
0.0190303
0.0250488
0.0307066
0.0359904
0.0415796
0.0474313
0.0536211
0.0601802
0.0670197
0.0741708
0.0815209
0.089101
0.0967777
0.104581
0.112361
0.120148
0.127781
0.135289
0.14251
0.149469
0.156011
0.162159
0.167772
0.172868
0.177329
0.181169
0.184297
0.186722
0.188388
0.189297
0.189427
0.188778
0.187363
0.185177
0.182268
0.178627
0.174335
0.169378
0.163867
0.157782
0.151257
0.14427
0.136971
0.129335
0.12152
0.113499
0.105433
0.0972904
0.0892291
0.081216
0.0733975
0.0657398
0.0583733
0.051264
0.0443804
0.0377634
0.030757
0.023363
0.0154273
0.00686128
-0.00170671
-0.0102915
-0.0177913
-0.0241915
-0.0282051
-0.0298774
-0.0284111
-0.0238886
-0.0163015
-0.00571852
0.00709471
0.0220932
0.0373483
0.0531394
0.0663729
0.0778477
0.0856361
0.0902258
0.0925716
0.101493
0.0992914
0.0949104
0.087626
0.0768322
0.0643712
0.049365
0.0346051
0.0198567
0.00676019
-0.00436474
-0.0130733
-0.0188085
-0.0219708
-0.0218811
-0.0197645
-0.0149964
-0.00926017
-0.00221076
0.0048227
0.0119329
0.018455
0.0243975
0.0299928
0.0351839
0.0407052
0.0465559
0.0526849
0.0592428
0.0660317
0.0731814
0.080491
0.0880697
0.0957153
0.103517
0.111275
0.11906
0.126678
0.134185
0.141396
0.148354
0.154891
0.161038
0.166649
0.171744
0.176206
0.180045
0.183174
0.185599
0.187266
0.188175
0.188306
0.187657
0.186243
0.184058
0.18115
0.17751
0.17322
0.168264
0.162757
0.156674
0.150157
0.143172
0.135887
0.128252
0.120459
0.112439
0.104401
0.0962607
0.0882372
0.0802256
0.0724541
0.0647979
0.0574875
0.0503796
0.0435576
0.0370358
0.0300836
0.0227686
0.0148363
0.00629084
-0.00224319
-0.0108282
-0.0181673
-0.0245715
-0.0282969
-0.0299676
-0.02818
-0.0236615
-0.015798
-0.00522404
0.00775216
0.0227389
0.0380099
0.0537891
0.0669319
0.0783969
0.0860858
0.0906724
0.0929791
0.101886
0.0997214
0.0953434
0.0881576
0.077373
0.0650122
0.0500173
0.0352625
0.0205256
0.00729061
-0.00382499
-0.0127941
-0.0185246
-0.0220097
-0.021921
-0.0201109
-0.0153489
-0.00983656
-0.00279612
0.00410966
0.0112116
0.0176597
0.0235977
0.029123
0.034313
0.0397611
0.0456105
0.051674
0.0582306
0.0649648
0.0721131
0.0793789
0.0869561
0.0945681
0.102368
0.110102
0.117885
0.125487
0.132992
0.140194
0.14715
0.153682
0.159827
0.165437
0.170531
0.174993
0.178831
0.181961
0.184386
0.186054
0.186963
0.187096
0.186447
0.185034
0.182849
0.179943
0.176303
0.172016
0.167061
0.16156
0.155477
0.14897
0.141986
0.134717
0.127083
0.119312
0.111294
0.103288
0.0951488
0.087166
0.0791561
0.0714354
0.0637807
0.0565309
0.0494245
0.0426692
0.0361486
0.0292568
0.0219465
0.0140744
0.00553776
-0.00288404
-0.0114593
-0.0185846
-0.0249818
-0.028396
-0.030065
-0.0279304
-0.0234163
-0.0152543
-0.00469008
0.0084621
0.0234361
0.0387242
0.0544906
0.0675355
0.0789901
0.0865714
0.0911547
0.0934191
0.102311
0.100186
0.0958109
0.0887315
0.0779569
0.0657043
0.0507217
0.0359723
0.0212479
0.00786338
-0.00324214
-0.0124926
-0.0182181
-0.0220517
-0.021964
-0.0204849
-0.0157295
-0.010459
-0.00342821
0.0033397
0.0104328
0.0168009
0.0227341
0.0281838
0.0333725
0.0387416
0.0445897
0.0505824
0.0571375
0.0638128
0.0709595
0.078178
0.0857535
0.0933293
0.101128
0.108835
0.116617
0.124201
0.131704
0.138895
0.14585
0.152376
0.15852
0.164128
0.169221
0.173683
0.17752
0.180652
0.183076
0.184746
0.185655
0.185789
0.18514
0.183728
0.181543
0.178639
0.175
0.170716
0.165762
0.160266
0.154185
0.147688
0.140706
0.133453
0.125821
0.118074
0.110058
0.102085
0.0939481
0.0860094
0.0780012
0.0703353
0.0626823
0.055498
0.0483931
0.0417097
0.0351907
0.0283639
0.0210589
0.0132517
0.00472456
-0.00357607
-0.0121408
-0.0190352
-0.0254249
-0.028503
-0.0301702
-0.0276608
-0.0231515
-0.0146672
-0.00411349
0.00922873
0.024189
0.0394956
0.0552482
0.0681873
0.0796306
0.0870959
0.0916755
0.0938942
0.10277
0.100687
0.0963158
0.0893513
0.0785875
0.0664517
0.0514824
0.0367388
0.0220279
0.00848189
-0.00261276
-0.0121671
-0.0178871
-0.0220971
-0.0220105
-0.0208887
-0.0161404
-0.0111311
-0.00411077
0.00250827
0.00959177
0.0158735
0.0218016
0.0271695
0.032357
0.0376406
0.0434874
0.0494036
0.0559572
0.0625687
0.0697137
0.0768813
0.0844549
0.0919916
0.0997883
0.107467
0.115247
0.122812
0.130313
0.137492
0.144446
0.150966
0.157109
0.162714
0.167806
0.172268
0.176105
0.179239
0.181662
0.183334
0.184242
0.184377
0.183729
0.182318
0.180134
0.177231
0.173593
0.169312
0.164359
0.15887
0.15279
0.146304
0.139323
0.132088
0.124458
0.116738
0.108723
0.100787
0.0926515
0.0847603
0.0767541
0.0691474
0.0614962
0.0543826
0.0472794
0.0406737
0.0341562
0.0273997
0.0201003
0.0123634
0.00384643
-0.00432334
-0.0128768
-0.0195217
-0.0259033
-0.0286186
-0.0302838
-0.0273698
-0.0228655
-0.0140332
-0.00349087
0.0100566
0.025002
0.0403286
0.0560662
0.0688911
0.0803222
0.0876621
0.0922379
0.0944073
0.103265
0.101228
0.096861
0.0900205
0.0792684
0.0672588
0.0523037
0.0375665
0.0228702
0.00914977
-0.00193313
-0.0118156
-0.0175296
-0.0221461
-0.0220607
-0.0213248
-0.0165842
-0.0118568
-0.00484782
0.00161045
0.00868359
0.0148721
0.0207946
0.0260743
0.0312604
0.0364518
0.0422971
0.0481307
0.0546826
0.0612254
0.0683686
0.0754809
0.0830527
0.0905471
0.0983418
0.10599
0.113768
0.121312
0.128811
0.135978
0.142929
0.149444
0.155584
0.161188
0.166279
0.170741
0.174577
0.177712
0.180135
0.181808
0.182717
0.182853
0.182205
0.180796
0.178612
0.175711
0.172074
0.167796
0.162845
0.157362
0.151283
0.144809
0.13783
0.130614
0.122986
0.115294
0.107282
0.0993847
0.0912514
0.0834116
0.0754074
0.0678647
0.0602154
0.0531782
0.0460768
0.0395549
0.0330392
0.0263586
0.0190652
0.0114041
0.00289819
-0.00513028
-0.0136715
-0.0200472
-0.0264199
-0.0287433
-0.0304064
-0.0270555
-0.0225567
-0.0133485
-0.00281853
0.0109505
0.0258799
0.041228
0.0569495
0.0696512
0.0810691
0.0882736
0.0928452
0.0949614
0.1038
0.101813
0.0974497
0.0907432
0.0800037
0.0681303
0.0531907
0.0384603
0.0237797
0.00987099
-0.00119923
-0.011436
-0.0171437
-0.0221991
-0.0221149
-0.0217958
-0.0170634
-0.0126406
-0.00564373
0.000640953
0.00770291
0.0137907
0.0197072
0.0248916
0.0300762
0.035168
0.0410117
0.0467561
0.0533062
0.0597747
0.066916
0.0739688
0.0815385
0.0889873
0.0967798
0.104395
0.112171
0.119692
0.12719
0.134343
0.141292
0.147799
0.153939
0.15954
0.164629
0.169092
0.172927
0.176063
0.178486
0.180161
0.181069
0.181207
0.18056
0.179152
0.176968
0.174069
0.170433
0.166159
0.161209
0.155733
0.149656
0.143195
0.136218
0.129023
0.121397
0.113735
0.105725
0.0978706
0.0897395
0.0819552
0.0739532
0.0664795
0.0588324
0.0518776
0.0447782
0.0383469
0.031833
0.0252343
0.0179475
0.0103682
0.00187424
-0.00600164
-0.0145296
-0.0206146
-0.0269778
-0.0288781
-0.0305389
-0.0267161
-0.0222233
-0.0126093
-0.00209251
0.0119158
0.0268279
0.0421993
0.0579034
0.0704719
0.0818755
0.088934
0.093501
0.0955597
0.10448
0.10252
0.0982835
0.0915807
0.0811506
0.0692595
0.0545803
0.0397797
0.0251205
0.0110636
-9.5827e-05
-0.0106051
-0.0165532
-0.0219357
-0.0221961
-0.0221872
-0.0177262
-0.0135737
-0.00669457
-0.000616696
0.00642299
0.0123763
0.0182241
0.0233323
0.0283195
0.0333418
0.0391179
0.0447999
0.051281
0.0576974
0.0647793
0.0717902
0.0793101
0.0867264
0.0944782
0.102069
0.109813
0.117318
0.12479
0.131933
0.138863
0.145365
0.151491
0.15709
0.16217
0.166633
0.170462
0.1736
0.176019
0.177696
0.178604
0.178743
0.178097
0.176691
0.174512
0.171614
0.167986
0.163715
0.158777
0.153307
0.147247
0.140796
0.133842
0.126661
0.119066
0.111427
0.103456
0.095632
0.0875496
0.0798045
0.0718606
0.0644356
0.0568557
0.0499589
0.042924
0.0365561
0.0302384
0.0237051
0.01648
0.00902092
0.000535586
-0.00714634
-0.0155721
-0.0213925
-0.0274885
-0.029073
-0.0303663
-0.0261939
-0.0214199
-0.0114955
-0.000852376
0.0133424
0.0282575
0.0437279
0.0591623
0.0717642
0.0828334
0.0898935
0.0943081
0.0963362
0.105328
0.103369
0.0991951
0.092505
0.0825434
0.0706841
0.0566219
0.0418734
0.0273376
0.0133355
0.00171049
-0.00875719
-0.0155971
-0.020959
-0.022337
-0.0223314
-0.0189553
-0.0148249
-0.00873066
-0.00268005
0.003918
0.00985175
0.0155207
0.0206239
0.0254964
0.030517
0.0360928
0.041773
0.0480498
0.0544641
0.0613714
0.0683799
0.075754
0.083168
0.0908012
0.0983901
0.10604
0.113543
0.120943
0.128083
0.134961
0.141461
0.14755
0.153147
0.158202
0.162664
0.166478
0.169615
0.172028
0.173704
0.174611
0.174751
0.174111
0.172704
0.170539
0.167642
0.164036
0.159766
0.154861
0.149392
0.143381
0.136931
0.130044
0.122866
0.11536
0.107723
0.0998669
0.0920452
0.0841048
0.0763622
0.0685888
0.0611662
0.0537849
0.0468903
0.0400461
0.0336803
0.0274561
0.0209284
0.0138425
0.00640417
-0.0016895
-0.00934203
-0.017023
-0.0228181
-0.0278221
-0.0293999
-0.029499
-0.0253454
-0.0195511
-0.00966937
0.00157135
0.0157069
0.0305676
0.0459797
0.0607718
0.073337
0.0838981
0.0909437
0.0952918
0.0973182
0.106297
0.10434
0.100629
0.0939497
0.0842174
0.072389
0.0588265
0.0441342
0.0297317
0.0157888
0.00366102
-0.00676176
-0.0145646
-0.0199042
-0.0224893
-0.0224872
-0.0202825
-0.016176
-0.0109293
-0.00490813
0.00121301
0.00712565
0.0126015
0.0176992
0.0224478
0.0274667
0.0328262
0.0385044
0.0445606
0.0509727
0.0576913
0.0646974
0.0719141
0.0793255
0.0868307
0.0944169
0.101965
0.109466
0.116789
0.123927
0.130747
0.137245
0.143293
0.148888
0.153917
0.158378
0.162176
0.165312
0.167718
0.169393
0.1703
0.17044
0.169806
0.1684
0.166249
0.163353
0.159769
0.155501
0.150632
0.145165
0.139206
0.132759
0.125944
0.118768
0.111358
0.103724
0.095991
0.0881721
0.080385
0.0726451
0.0650558
0.0576358
0.0504689
0.0435767
0.0369384
0.0305748
0.0244516
0.01793
0.0109945
0.0035785
-0.00409223
-0.011713
-0.0185897
-0.0243575
-0.0281823
-0.0297529
-0.0285624
-0.0244291
-0.0175331
-0.0076974
0.00418859
0.0182602
0.0330622
0.0484113
0.0626855
0.075215
0.0855296
0.0925628
0.0964098
0.0984343
0.108211
0.106257
0.102997
0.0963494
0.0870003
0.0752426
0.0614936
0.046871
0.0318447
0.0179503
0.00480637
-0.00559537
-0.0146603
-0.0200072
-0.0237423
-0.0237708
-0.0223569
-0.01829
-0.013457
-0.00747007
-0.00153343
0.00435793
0.00958371
0.0146757
0.0190336
0.0240506
0.0291171
0.0347931
0.0406366
0.0470463
0.0535983
0.0606018
0.067696
0.0751046
0.0825275
0.0901109
0.0976113
0.105109
0.112412
0.119547
0.126367
0.132863
0.138924
0.144517
0.149566
0.154024
0.157843
0.160978
0.1634
0.165074
0.165991
0.16613
0.165499
0.164093
0.161937
0.159042
0.155451
0.151184
0.146309
0.140844
0.134887
0.128442
0.121645
0.114472
0.107104
0.0994731
0.0918124
0.0839964
0.0763176
0.0685806
0.0611393
0.0537221
0.0467443
0.0398547
0.0334813
0.0271201
0.0213549
0.0148397
0.00811177
0.000718273
-0.00682576
-0.0144101
-0.0209357
-0.0266601
-0.0297374
-0.0312722
-0.0289143
-0.0247684
-0.0165065
-0.00668846
0.00637079
0.0203935
0.0359714
0.0512459
0.0658193
0.0782708
0.0881969
0.0951941
0.0985153
0.100537
0.110263
0.108311
0.10529
0.0986637
0.0899738
0.0782031
0.0643758
0.0498291
0.0340832
0.0202406
0.00597005
-0.00441025
-0.0148392
-0.0201957
-0.0252048
-0.0252674
-0.0247004
-0.0206766
-0.0162185
-0.0102685
-0.00445835
0.00141005
0.00635013
0.0114359
0.0153403
0.0203553
0.0251021
0.0307758
0.0363909
0.0427979
0.0491721
0.0561727
0.0631373
0.0705429
0.0778799
0.0854602
0.0929121
0.100407
0.107691
0.114823
0.121647
0.12814
0.134218
0.139809
0.144882
0.149338
0.153181
0.156314
0.158755
0.160429
0.161356
0.161495
0.160865
0.15946
0.157298
0.154404
0.150802
0.146538
0.141653
0.136191
0.130233
0.123791
0.117011
0.109841
0.102515
0.0948865
0.0873005
0.0794877
0.0719227
0.0641889
0.0569047
0.0494905
0.0427147
0.0358279
0.0297427
0.0233841
0.0180386
0.0115302
0.00504357
-0.00232565
-0.00980597
-0.017351
-0.0235727
-0.02925
-0.0315322
-0.0330273
-0.0293784
-0.0252171
-0.0154846
-0.00568418
0.0086693
0.0226402
0.0391148
0.0543083
0.0690762
0.0815378
0.0907847
0.0977538
0.100773
0.102792
0.111532
0.109743
0.106731
0.100589
0.0919394
0.0807538
0.067025
0.052699
0.0369666
0.0228259
0.00848849
-0.00271008
-0.0132464
-0.0197781
-0.0249517
-0.0262705
-0.0258561
-0.0228851
-0.0185156
-0.0132813
-0.00752124
-0.00212112
0.00274107
0.00741657
0.0112321
0.0158193
0.0205393
0.0258186
0.0314137
0.0374686
0.0438263
0.0505194
0.0574711
0.0646139
0.0719412
0.0793021
0.0867472
0.094063
0.101343
0.108333
0.115155
0.121539
0.127617
0.133128
0.1382
0.142601
0.146444
0.149544
0.151985
0.153644
0.154572
0.154714
0.154085
0.152701
0.150539
0.147686
0.144085
0.139885
0.135002
0.129633
0.123677
0.117361
0.110585
0.103579
0.0962596
0.0888385
0.0812614
0.0737015
0.0661484
0.0587142
0.0514453
0.0443761
0.0376187
0.0311185
0.0250582
0.0191153
0.0138639
0.00774334
0.00133047
-0.00560855
-0.0130476
-0.0199142
-0.0260554
-0.030682
-0.0328132
-0.0329893
-0.0291663
-0.0237041
-0.0138518
-0.00308302
0.0113531
0.0257424
0.0422215
0.0572457
0.0719139
0.0837725
0.0929736
0.0994097
0.102418
0.104248
0.112902
0.11129
0.108288
0.102668
0.0940619
0.0835081
0.0698486
0.0557961
0.0401395
0.0256291
0.0113545
-0.000837094
-0.0113355
-0.0192811
-0.0244477
-0.0272795
-0.0268862
-0.025198
-0.0208652
-0.0165324
-0.0108073
-0.00602411
-0.00117997
0.00297236
0.0067859
0.0108754
0.0155932
0.0204138
0.0260062
0.0316517
0.0380064
0.0443418
0.0512902
0.0581275
0.0654513
0.0725572
0.0799987
0.0871069
0.0943831
0.101209
0.108028
0.114286
0.12036
0.125779
0.130849
0.135186
0.139027
0.142088
0.144528
0.14617
0.147098
0.147243
0.146614
0.145255
0.143094
0.140289
0.13669
0.132565
0.127684
0.122422
0.11647
0.1103
0.103527
0.0967126
0.0893962
0.0822159
0.0746424
0.0673764
0.059827
0.0527412
0.0454756
0.0388077
0.0320536
0.0260029
0.0199455
0.0144861
0.00923739
0.00361088
-0.00278239
-0.00915266
-0.0165538
-0.0225649
-0.0286651
-0.032012
-0.0341169
-0.0327048
-0.028885
-0.0218573
-0.012042
-9.80503e-05
0.014272
0.0291783
0.0455745
0.0603879
0.0749782
0.0861856
0.0953372
0.101198
0.104195
0.105821
0.114381
0.11296
0.109969
0.104914
0.0963539
0.0864823
0.0728977
0.0591405
0.0435657
0.0286562
0.0144494
0.00118543
-0.00927213
-0.0187445
-0.0239033
-0.0283691
-0.0279986
-0.0276956
-0.0234025
-0.0200431
-0.0143557
-0.0102387
-0.00541407
-0.00182667
0.00198469
0.00553683
0.0102522
0.0145775
0.020167
0.0253703
0.0317217
0.037671
0.0446158
0.0511232
0.0584433
0.0652737
0.0727115
0.0795954
0.0868679
0.0935164
0.100331
0.106453
0.112525
0.117843
0.12291
0.127179
0.131018
0.134037
0.136476
0.138099
0.139026
0.139176
0.138547
0.137214
0.135054
0.132301
0.128704
0.12466
0.119782
0.114636
0.108687
0.102675
0.0959059
0.0892975
0.0819848
0.0750645
0.0674949
0.0605464
0.0530008
0.0462912
0.0390294
0.0327948
0.026044
0.0204789
0.0144246
0.00948732
0.00424151
-0.00085152
-0.00722361
-0.0129797
-0.02034
-0.0254274
-0.0314831
-0.0334481
-0.0355247
-0.0323976
-0.0285813
-0.0198631
-0.0100878
0.00312525
0.0174239
0.0328885
0.0491952
0.0637811
0.0782872
0.0887914
0.0978896
0.103129
0.106114
0.107519
0.115265
0.11391
0.110774
0.105932
0.0980645
0.088535
0.0759183
0.0623414
0.0473496
0.0323293
0.018125
0.00446748
-0.00654551
-0.0166107
-0.0228239
-0.0279536
-0.0289083
-0.029204
-0.0261445
-0.0232477
-0.0184849
-0.0147107
-0.010432
-0.00710905
-0.00367208
-0.000330868
0.00394911
0.00807955
0.01322
0.0182489
0.0241824
0.0299789
0.0365413
0.0429177
0.0498937
0.0566142
0.0637482
0.0705422
0.0775523
0.0841292
0.0907235
0.0967902
0.102683
0.107961
0.11289
0.11713
0.120871
0.123872
0.126253
0.127868
0.128776
0.128927
0.128317
0.126995
0.124895
0.122163
0.118667
0.114657
0.109923
0.104825
0.0990662
0.0931186
0.0865874
0.0800619
0.0730358
0.0662193
0.0589844
0.0521622
0.0449974
0.038437
0.0315982
0.0255348
0.0192435
0.0138698
0.00826102
0.0035292
-0.0013354
-0.00617791
-0.0120188
-0.0174533
-0.0239044
-0.0285473
-0.0333463
-0.0347104
-0.035365
-0.0315381
-0.0265143
-0.0171361
-0.00665683
0.00702786
0.0214156
0.0370514
0.0527761
0.0672025
0.0806564
0.0908012
0.0991401
0.104148
0.107303
0.108633
0.116228
0.114875
0.112355
0.107528
0.100448
0.0909663
0.0793811
0.0658901
0.051505
0.0365849
0.0220794
0.0085099
-0.00371437
-0.0137211
-0.0217833
-0.0268959
-0.0299922
-0.0303108
-0.0292533
-0.026399
-0.023195
-0.0194566
-0.016166
-0.0128523
-0.0101316
-0.00679236
-0.00327809
0.000849887
0.00524218
0.010268
0.0155125
0.0213055
0.0272439
0.0336165
0.0400376
0.0467541
0.0534043
0.0601942
0.0667916
0.0733646
0.0796162
0.0856792
0.0912971
0.0965716
0.101291
0.105529
0.109123
0.112122
0.114415
0.11603
0.116909
0.11706
0.116481
0.11516
0.11315
0.11042
0.107078
0.10307
0.0985592
0.0934638
0.0880007
0.0820566
0.0758986
0.069377
0.0628052
0.0559928
0.0492944
0.0424763
0.0359287
0.0293721
0.0232257
0.0171659
0.011633
0.00626254
0.00143097
-0.00329802
-0.0074527
-0.0122846
-0.0171705
-0.0225657
-0.0274922
-0.0320868
-0.0348596
-0.0361943
-0.0345713
-0.0307568
-0.0236482
-0.0143288
-0.00237291
0.0112174
0.0260979
0.0416219
0.0567859
0.0711132
0.0834755
0.0935632
0.101046
0.106034
0.108509
0.109837
0.117938
0.116597
0.11461
0.109872
0.104193
0.0947812
0.08403
0.0706309
0.0560458
0.0412355
0.0256243
0.0121303
-0.00195866
-0.0119297
-0.0222555
-0.0273852
-0.0325267
-0.0328938
-0.0332832
-0.0304829
-0.0281989
-0.0244986
-0.022175
-0.018871
-0.0172995
-0.0139644
-0.0113717
-0.00724826
-0.00363268
0.00138819
0.00593759
0.0117252
0.0170551
0.023422
0.0293217
0.0360326
0.0422462
0.0490306
0.0552717
0.0618395
0.0678085
0.0738668
0.0792685
0.0845389
0.0891009
0.0933357
0.0968237
0.0998206
0.102054
0.103667
0.104529
0.10468
0.104125
0.102805
0.100864
0.0981355
0.0949113
0.0909062
0.08657
0.0814786
0.0762565
0.0703171
0.0644767
0.0579603
0.0517913
0.0449845
0.0387809
0.0319687
0.0260102
0.0194595
0.013995
0.00794094
0.00317546
-0.00218965
-0.00610372
-0.0108276
-0.0138314
-0.018652
-0.0226068
-0.0279603
-0.0320433
-0.0365779
-0.0379532
-0.0392309
-0.0355106
-0.0316704
-0.0221017
-0.0128146
0.00129054
0.0148041
0.0310669
0.0464728
0.0620273
0.076249
0.0878185
0.0978251
0.103795
0.10868
0.110477
0.11179
0.118458
0.117368
0.115387
0.111525
0.105881
0.0978172
0.087141
0.0748833
0.0604114
0.0459437
0.0304234
0.0163027
0.00227881
-0.00922789
-0.0195599
-0.0268189
-0.0320412
-0.0346575
-0.0351426
-0.0342803
-0.0320863
-0.029863
-0.0276117
-0.0254858
-0.0239216
-0.0216777
-0.0190868
-0.0159905
-0.0123774
-0.00832056
-0.00377433
0.00112424
0.00645034
0.0120117
0.0179073
0.0239018
0.0301111
0.0362713
0.0425081
0.0485447
0.0545096
0.060129
0.0655269
0.0704488
0.0750075
0.0789815
0.0824671
0.0852883
0.0875199
0.0890416
0.0899027
0.090045
0.0894905
0.0882468
0.0863068
0.0837434
0.0805215
0.0767741
0.0724409
0.0677061
0.0624877
0.0570092
0.0511728
0.0452258
0.0390612
0.0329341
0.0267348
0.0207106
0.0147563
0.00909559
0.00363485
-0.00143847
-0.00620062
-0.0105106
-0.0144219
-0.0180234
-0.02101
-0.024634
-0.0285127
-0.0323807
-0.0363728
-0.038921
-0.0401964
-0.0390797
-0.0352687
-0.0290527
-0.0194702
-0.0083628
0.00567569
0.0200431
0.0362085
0.0513768
0.0668071
0.0798621
0.0913427
0.0999022
0.105829
0.109742
0.111533
0.112555
0.11902
0.118201
0.116203
0.11331
0.107703
0.101096
0.0905004
0.0794753
0.0651149
0.0510257
0.0356198
0.0208083
0.00687806
-0.00631038
-0.0165873
-0.0261901
-0.0314045
-0.0365092
-0.0370243
-0.0383352
-0.0361837
-0.0356492
-0.033423
-0.0326351
-0.0310724
-0.0300068
-0.0274178
-0.0254306
-0.0218203
-0.0188045
-0.0142617
-0.0103232
-0.00500107
-0.000309539
0.0055816
0.0108025
0.0170071
0.0224933
0.0287253
0.0341885
0.0401488
0.0452944
0.0506883
0.0552337
0.059789
0.0634813
0.0669642
0.0695959
0.0718258
0.0732482
0.0741086
0.0742417
0.0736876
0.0725263
0.0705878
0.0682022
0.0649828
0.0615138
0.0571838
0.0528341
0.0476196
0.0426387
0.0368068
0.0314747
0.0253146
0.0199215
0.0137269
0.0085536
0.00260378
-0.00209581
-0.00755244
-0.0115667
-0.0163253
-0.0194958
-0.0234042
-0.0257938
-0.0287777
-0.031043
-0.0348931
-0.0370612
-0.0410041
-0.0413243
-0.0425621
-0.0387965
-0.0349877
-0.0261567
-0.0166287
-0.00352777
0.010411
0.0257204
0.0417591
0.0566656
0.0719684
0.0837637
0.0951483
0.102145
0.108026
0.110866
0.112672
0.113382
0.118459
0.117682
0.11578
0.112993
0.108359
0.102069
0.0932792
0.0825706
0.0699077
0.0559889
0.0414567
0.0266066
0.012532
-0.000906664
-0.0124023
-0.0224255
-0.029799
-0.0354114
-0.0385094
-0.0403259
-0.0405475
-0.0404492
-0.0398126
-0.0393495
-0.0387662
-0.0379274
-0.0364137
-0.0346406
-0.032134
-0.0293199
-0.0258333
-0.0220816
-0.0177534
-0.0132319
-0.00825975
-0.00319073
0.00218065
0.00753385
0.0130272
0.0183766
0.0236995
0.0287507
0.0336133
0.0380835
0.0422174
0.0458532
0.049027
0.0516206
0.0536558
0.0550581
0.05584
0.0559714
0.0554571
0.0543124
0.0525344
0.0501845
0.0472485
0.0438353
0.0399138
0.0356407
0.0309605
0.0260785
0.0209056
0.0156951
0.0103154
0.00506668
-0.000233231
-0.0052398
-0.0101913
-0.0147034
-0.0190732
-0.0228816
-0.0264838
-0.0294337
-0.0322056
-0.0343611
-0.036311
-0.0382451
-0.0404418
-0.0421644
-0.0436043
-0.0433992
-0.0418193
-0.0375082
-0.0312142
-0.0219087
-0.0108484
0.00255859
0.016839
0.0322258
0.0474255
0.0621705
0.0756555
0.0871149
0.0965071
0.103156
0.10797
0.110691
0.112465
0.113125
0.118423
0.117646
0.11654
0.113773
0.111304
0.105017
0.0982283
0.0876487
0.076097
0.0623299
0.0477923
0.0330826
0.0177095
0.0043755
-0.00952152
-0.0194956
-0.0297883
-0.0354076
-0.041276
-0.0431309
-0.0455855
-0.0455241
-0.0467364
-0.0462825
-0.0474475
-0.0466094
-0.0466416
-0.04487
-0.0437808
-0.0409692
-0.0388056
-0.0350572
-0.0319416
-0.0274241
-0.023543
-0.0184784
-0.0140697
-0.00872125
-0.00405896
0.00128581
0.00590942
0.0109562
0.0152494
0.0197157
0.0234064
0.027039
0.0298924
0.0324836
0.0343179
0.035719
0.0364182
0.0365495
0.0360718
0.0349282
0.03331
0.0309622
0.0283157
0.0249055
0.0214115
0.0171422
0.0130364
0.00815869
0.0037148
-0.00149118
-0.0059824
-0.0112265
-0.0154785
-0.0204807
-0.024231
-0.0287391
-0.0317677
-0.0355728
-0.0377149
-0.0406622
-0.0418218
-0.0439753
-0.0440936
-0.046016
-0.0463089
-0.0479879
-0.0471364
-0.0468834
-0.0423655
-0.0380383
-0.0285042
-0.0192438
-0.00536774
0.00792968
0.0238779
0.0391105
0.0545261
0.0690992
0.0815034
0.0928116
0.100101
0.106736
0.109198
0.11189
0.112647
0.113307
0.116882
0.116363
0.115231
0.113597
0.111177
0.10693
0.100379
0.0919365
0.0806147
0.0683733
0.0539524
0.0396967
0.0243601
0.0102283
-0.00375013
-0.0156682
-0.0261533
-0.0344227
-0.0405182
-0.0450939
-0.0477594
-0.0499769
-0.0513542
-0.0526732
-0.0538981
-0.0546209
-0.0547414
-0.0544507
-0.0534421
-0.0520512
-0.0499635
-0.047555
-0.0445097
-0.0412338
-0.0374166
-0.0334816
-0.0291298
-0.0247884
-0.0201758
-0.0157083
-0.011127
-0.00682275
-0.00256434
0.00129676
0.00496026
0.00812685
0.0109604
0.013226
0.0150479
0.0162652
0.0169594
0.0170514
0.0165761
0.0155414
0.0139333
0.0118473
0.00921877
0.00622872
0.00276098
-0.000924949
-0.00499591
-0.00912357
-0.0135237
-0.0178129
-0.0222513
-0.0264157
-0.030606
-0.0343749
-0.0380552
-0.0411921
-0.0441432
-0.0464614
-0.0485199
-0.0498931
-0.0509597
-0.0514412
-0.051489
-0.0515158
-0.0516343
-0.0508721
-0.0498004
-0.0465716
-0.041809
-0.0344737
-0.0247194
-0.0131262
0.000856437
0.0152569
0.0311786
0.0460978
0.061393
0.0744077
0.0865624
0.0955885
0.102612
0.107041
0.109441
0.110885
0.111664
0.112024
0.114673
0.114341
0.113258
0.112385
0.110347
0.107636
0.10194
0.0952244
0.084964
0.0739748
0.0604251
0.046571
0.0317487
0.0170232
0.00306715
-0.0103684
-0.0214002
-0.0317794
-0.0388457
-0.045644
-0.0493749
-0.0535182
-0.0556744
-0.0584923
-0.0601673
-0.062101
-0.0627428
-0.0636011
-0.063122
-0.0628341
-0.0612626
-0.0598944
-0.0573438
-0.0550321
-0.0516803
-0.0486229
-0.0447004
-0.0411417
-0.0369164
-0.0331309
-0.0288897
-0.025163
-0.0211933
-0.0178028
-0.014373
-0.011569
-0.00891108
-0.00689884
-0.00519193
-0.0041174
-0.00347523
-0.0034137
-0.00387596
-0.00482581
-0.00635443
-0.00823654
-0.010718
-0.0133811
-0.0166341
-0.0198662
-0.0236557
-0.0272003
-0.0312545
-0.034831
-0.0388631
-0.0421885
-0.0459175
-0.0487283
-0.0519
-0.053972
-0.0563763
-0.0575402
-0.0590247
-0.0591763
-0.0596704
-0.0588543
-0.0583997
-0.0568238
-0.0560795
-0.0532513
-0.0509761
-0.0453138
-0.0394081
-0.0296765
-0.0192154
-0.00579767
0.00825473
0.0234873
0.0389007
0.0535249
0.0678857
0.0796162
0.0906067
0.0977855
0.103857
0.106622
0.108599
0.109203
0.109982
0.110126
0.111541
0.111206
0.110643
0.109733
0.10985
0.107114
0.104429
0.0977677
0.0903712
0.0795092
0.0679445
0.0542565
0.0400026
0.0254486
0.010435