/*--------------------------------*- C++ -*----------------------------------*\
| =========                 |                                                 |
| \\      /  F ield         | OpenFOAM: The Open Source CFD Toolbox           |
|  \\    /   O peration     | Version:  v2106                                 |
|   \\  /    A nd           | Website:  www.openfoam.com                      |
|    \\/     M anipulation  |                                                 |
\*---------------------------------------------------------------------------*/
FoamFile
{
    version     2.0;
    format      ascii;
    arch        "LSB;label=32;scalar=64";
    class       volScalarField;
    location    "0";
    object      expGpCoeffs17;
}
// * * * * * * * * * * * * * * * * * * * * * * * * * * * * * * * * * * * * * //

dimensions      [0 0 0 0 0 0 0];

internalField   nonuniform List<scalar> 
8000
(
0.0822458
0.082756
0.0825165
0.0807654
0.0751837
0.0659539
0.0523856
0.0348492
0.0149228
-0.00735225
-0.0298114
-0.0522826
-0.0731207
-0.0921879
-0.108296
-0.121538
-0.131436
-0.138105
-0.142086
-0.143399
-0.143117
-0.141245
-0.138491
-0.134868
-0.130488
-0.125305
-0.119289
-0.112446
-0.104852
-0.096521
-0.0875988
-0.0781017
-0.0682147
-0.0579572
-0.0475432
-0.0369944
-0.0265411
-0.0162061
-0.0062228
0.00338657
0.0123994
0.0207951
0.0283748
0.0351215
0.0408722
0.0456133
0.0492274
0.051706
0.0529842
0.0530586
0.0519211
0.0495736
0.0460656
0.0414043
0.0356941
0.0289473
0.0213168
0.0128197
0.00364885
-0.00617588
-0.0164335
-0.0271013
-0.0379436
-0.0489376
-0.0598469
-0.0706493
-0.0811227
-0.091246
-0.100824
-0.109838
-0.11813
-0.125686
-0.132391
-0.138234
-0.143155
-0.14715
-0.150177
-0.152285
-0.153199
-0.152927
-0.150658
-0.146408
-0.139201
-0.129026
-0.115691
-0.0990762
-0.0801351
-0.0587956
-0.0366036
-0.0137212
0.00808044
0.0286329
0.0460209
0.060161
0.070195
0.075791
0.0782945
0.077768
0.0766027
0.075447
0.0822047
0.0827148
0.0827385
0.0809904
0.0755655
0.0663442
0.0526896
0.0351557
0.0150354
-0.00724506
-0.0298663
-0.0523466
-0.0733006
-0.0923782
-0.108554
-0.121806
-0.131688
-0.138363
-0.142258
-0.143573
-0.143201
-0.141329
-0.138548
-0.134926
-0.130556
-0.125374
-0.119354
-0.112512
-0.104906
-0.096576
-0.0876378
-0.0781419
-0.0682357
-0.0579796
-0.0475443
-0.0369968
-0.0265214
-0.0161877
-0.00618268
0.00342546
0.0124583
0.0208529
0.0284499
0.0351957
0.0409597
0.0457001
0.0493229
0.0518012
0.0530828
0.0531572
0.0520177
0.0496705
0.0461552
0.0414945
0.0357721
0.0290261
0.0213791
0.0128831
0.00369247
-0.006131
-0.0164105
-0.0270769
-0.0379417
-0.0489343
-0.0598656
-0.0706666
-0.0811601
-0.0912821
-0.100877
-0.10989
-0.118196
-0.125751
-0.132464
-0.138307
-0.143231
-0.147225
-0.150254
-0.152361
-0.153315
-0.153042
-0.150863
-0.146611
-0.139472
-0.12929
-0.115931
-0.0993075
-0.0802595
-0.0589107
-0.0365801
-0.0136909
0.00827358
0.0288282
0.0463748
0.0605094
0.0705526
0.07614
0.0784388
0.0779105
0.0765094
0.075354
0.0821604
0.0826703
0.0829782
0.0812334
0.0759777
0.0667656
0.0530178
0.0354867
0.0151571
-0.00712931
-0.0299256
-0.0524157
-0.0734949
-0.0925836
-0.108833
-0.122095
-0.131961
-0.138642
-0.142443
-0.143761
-0.143292
-0.141421
-0.13861
-0.134988
-0.13063
-0.125448
-0.119425
-0.112583
-0.104964
-0.0966354
-0.0876799
-0.0781854
-0.0682585
-0.0580038
-0.0475455
-0.0369995
-0.0265002
-0.0161679
-0.00613936
0.00346745
0.012522
0.0209154
0.0285309
0.0352758
0.0410541
0.0457939
0.049426
0.0519039
0.0531893
0.0532637
0.052122
0.0497752
0.0462519
0.0415919
0.0358562
0.0291112
0.0214464
0.0129515
0.00373958
-0.00608253
-0.0163856
-0.0270505
-0.0379397
-0.0489308
-0.0598858
-0.0706853
-0.0812005
-0.0913211
-0.100934
-0.109946
-0.118266
-0.12582
-0.132544
-0.138386
-0.143314
-0.147307
-0.150337
-0.152443
-0.15344
-0.153167
-0.151084
-0.146829
-0.139764
-0.129576
-0.116191
-0.0995572
-0.0803938
-0.059035
-0.0365547
-0.0136582
0.00848215
0.0290391
0.046757
0.0608856
0.0709387
0.0765169
0.0785947
0.0780642
0.0764086
0.0752535
0.0821125
0.0826223
0.0832371
0.0814958
0.0764229
0.0672207
0.0533722
0.0358441
0.0152884
-0.00700432
-0.0299896
-0.0524902
-0.0737048
-0.0928054
-0.109134
-0.122407
-0.132255
-0.138943
-0.142643
-0.143963
-0.143389
-0.141519
-0.138676
-0.135056
-0.130709
-0.125528
-0.119501
-0.11266
-0.105027
-0.0966995
-0.0877254
-0.0782322
-0.068283
-0.0580299
-0.0475468
-0.0370024
-0.0264772
-0.0161464
-0.00609258
0.0035128
0.0125907
0.0209829
0.0286184
0.0353623
0.0411561
0.0458952
0.0495374
0.0520149
0.0533043
0.0533787
0.0522347
0.0498882
0.0463564
0.0416971
0.0359471
0.029203
0.021519
0.0130254
0.00379045
-0.0060302
-0.0163586
-0.027022
-0.0379375
-0.048927
-0.0599076
-0.0707055
-0.0812441
-0.0913632
-0.100996
-0.110007
-0.118343
-0.125895
-0.132629
-0.13847
-0.143403
-0.147396
-0.150426
-0.152532
-0.153576
-0.153301
-0.151324
-0.147065
-0.14008
-0.129884
-0.116472
-0.0998268
-0.0805388
-0.0591692
-0.0365273
-0.0136229
0.00870736
0.0292669
0.0471697
0.0612918
0.0713556
0.0769239
0.0787629
0.0782303
0.0762998
0.075145
0.0820607
0.0825704
0.0835166
0.0817653
0.0769036
0.0677121
0.0537549
0.0362301
0.0154302
-0.00686935
-0.0300587
-0.0525708
-0.0739314
-0.0930449
-0.109459
-0.122743
-0.132573
-0.139268
-0.142859
-0.144182
-0.143495
-0.141626
-0.138749
-0.135129
-0.130795
-0.125615
-0.119583
-0.112743
-0.105095
-0.0967687
-0.0877745
-0.0782829
-0.0683096
-0.0580581
-0.0475482
-0.0370055
-0.0264524
-0.0161233
-0.00604206
0.00356178
0.0126649
0.0210558
0.0287129
0.0354557
0.0412663
0.0460046
0.0496576
0.0521348
0.0534285
0.0535028
0.0523563
0.0500102
0.0464692
0.0418106
0.0360452
0.0293022
0.0215975
0.0131052
0.00384538
-0.00597369
-0.0163296
-0.0269912
-0.0379352
-0.0489228
-0.0599311
-0.0707274
-0.0812912
-0.0914087
-0.101064
-0.110073
-0.118425
-0.125977
-0.132722
-0.138562
-0.143499
-0.147491
-0.150522
-0.152628
-0.153722
-0.153447
-0.151582
-0.14732
-0.140421
-0.130216
-0.116775
-0.100118
-0.0806954
-0.0593142
-0.0364978
-0.0135847
0.00895056
0.0295128
0.0476154
0.0617305
0.0718059
0.0773633
0.0789181
0.0784096
0.0761823
0.0750278
0.0820034
0.0825336
0.0835675
0.081971
0.0773084
0.0682554
0.0541851
0.0367828
0.015596
-0.00666503
-0.0300857
-0.0525409
-0.0740922
-0.0931424
-0.109784
-0.123078
-0.132917
-0.139619
-0.143092
-0.144419
-0.143609
-0.141741
-0.138826
-0.135207
-0.130872
-0.125691
-0.119654
-0.112812
-0.10515
-0.096821
-0.0878075
-0.0783127
-0.0683163
-0.0580612
-0.0475257
-0.036979
-0.0263991
-0.016066
-0.00595844
0.00364945
0.0127768
0.0211715
0.0288495
0.0355957
0.0414223
0.0461636
0.0498269
0.0523063
0.0536042
0.0536798
0.0525309
0.0501855
0.0466356
0.0419769
0.0361967
0.0294528
0.0217281
0.0132345
0.00395082
-0.00587015
-0.0162524
-0.026916
-0.0378873
-0.0488771
-0.0599119
-0.0707103
-0.0812984
-0.0914179
-0.101093
-0.110104
-0.118473
-0.126026
-0.132782
-0.138624
-0.143565
-0.147557
-0.150626
-0.152731
-0.15388
-0.153604
-0.151861
-0.147595
-0.140789
-0.130576
-0.11707
-0.100404
-0.0806961
-0.0593891
-0.0363566
-0.0135032
0.00926065
0.0297865
0.0481708
0.0621904
0.0721942
0.0776639
0.0789219
0.0782845
0.0760335
0.0748623
0.0819383
0.0825325
0.0835663
0.0821932
0.0775345
0.0688476
0.0547882
0.0377562
0.016588
-0.00544211
-0.028839
-0.0512639
-0.0727906
-0.0920053
-0.108625
-0.122222
-0.132096
-0.139186
-0.142631
-0.144255
-0.143406
-0.141684
-0.138745
-0.13516
-0.130809
-0.125611
-0.119575
-0.1127
-0.10504
-0.0966699
-0.087658
-0.0781152
-0.0681206
-0.0578119
-0.0472783
-0.0366744
-0.0260965
-0.0157048
-0.00559917
0.00406588
0.0131915
0.0216393
0.0293158
0.0361083
0.0419338
0.0467123
0.050375
0.0528807
0.0541784
0.0542686
0.0531199
0.050777
0.0472277
0.0425599
0.0367807
0.0300175
0.0222942
0.0137727
0.00449073
-0.00536449
-0.0157448
-0.0264465
-0.0374158
-0.0484454
-0.0594781
-0.0703158
-0.0809019
-0.0910582
-0.100732
-0.109776
-0.118143
-0.125724
-0.132479
-0.138344
-0.143284
-0.147287
-0.150397
-0.152459
-0.153658
-0.153207
-0.151515
-0.146917
-0.140144
-0.129546
-0.115998
-0.0990982
-0.0794143
-0.0580489
-0.0350413
-0.0123348
0.0104072
0.0306064
0.0489758
0.0625738
0.0725712
0.0776678
0.078926
0.0780779
0.0758284
0.0746006
0.0818681
0.0825314
0.0835649
0.0824331
0.0777786
0.069487
0.0554395
0.0388073
0.0176593
-0.00412156
-0.0274927
-0.0498849
-0.0713851
-0.0907774
-0.107374
-0.121297
-0.131154
-0.138614
-0.14205
-0.143978
-0.143126
-0.141572
-0.138634
-0.135091
-0.130741
-0.125525
-0.11949
-0.11258
-0.10492
-0.0965066
-0.0874966
-0.0779019
-0.0679094
-0.0575427
-0.0470113
-0.0363455
-0.0257698
-0.0153148
-0.00521123
0.00451557
0.0136393
0.0221444
0.0298193
0.0366618
0.0424861
0.0473048
0.0509668
0.0535011
0.0547984
0.0549044
0.0537559
0.0514157
0.0478671
0.0431895
0.0374115
0.0306272
0.0229056
0.0143538
0.00507375
-0.00481846
-0.0151967
-0.0259396
-0.0369067
-0.0479792
-0.0590097
-0.0698897
-0.0804737
-0.0906699
-0.100342
-0.109422
-0.117787
-0.125399
-0.132153
-0.138043
-0.142981
-0.146995
-0.150104
-0.152112
-0.153313
-0.152673
-0.150987
-0.146073
-0.139313
-0.128368
-0.114841
-0.0976881
-0.0780302
-0.0566017
-0.0336211
-0.0110731
0.0116453
0.0314918
0.0498451
0.0629878
0.0729782
0.0776721
0.0789303
0.0778548
0.0756069
0.074318
0.0817922
0.0825301
0.0835635
0.0826922
0.0780423
0.0701775
0.0561429
0.0399423
0.018816
-0.00269557
-0.026039
-0.0483959
-0.0698674
-0.0894515
-0.106022
-0.120299
-0.130137
-0.137997
-0.141422
-0.143679
-0.142823
-0.141452
-0.138514
-0.135017
-0.130668
-0.125431
-0.119398
-0.112449
-0.104792
-0.0963303
-0.0873222
-0.0776716
-0.0676812
-0.057252
-0.0467229
-0.0359903
-0.0254169
-0.0148937
-0.00479231
0.00500115
0.0141229
0.0226899
0.0303631
0.0372595
0.0430826
0.0479447
0.0516058
0.0541709
0.055468
0.0555909
0.0544427
0.0521053
0.0485576
0.0438693
0.0380926
0.0312856
0.0235657
0.0149813
0.00570331
-0.00422884
-0.0146048
-0.0253923
-0.0363569
-0.0474758
-0.0585039
-0.0694297
-0.0800114
-0.0902505
-0.0999201
-0.109039
-0.117402
-0.125047
-0.1318
-0.137717
-0.142655
-0.146679
-0.149788
-0.151738
-0.152939
-0.152096
-0.150416
-0.145161
-0.138415
-0.127095
-0.113591
-0.0961654
-0.0765355
-0.055039
-0.0320874
-0.00971062
0.0129822
0.0324478
0.0507837
0.0634348
0.0734178
0.0776766
0.0789351
0.077614
0.0753677
0.0740129
0.0817103
0.0825288
0.0835619
0.082972
0.078327
0.0709231
0.0569023
0.0411679
0.0200651
-0.00115572
-0.0244692
-0.0467879
-0.0682285
-0.0880196
-0.104563
-0.119221
-0.129039
-0.13733
-0.140745
-0.143355
-0.142497
-0.141323
-0.138384
-0.134937
-0.130589
-0.12533
-0.119299
-0.112309
-0.104653
-0.0961399
-0.087134
-0.0774229
-0.0674349
-0.0569381
-0.0464115
-0.0356068
-0.0250359
-0.0144389
-0.00433994
0.00552551
0.0146451
0.0232788
0.0309503
0.037905
0.0437267
0.0486356
0.0522959
0.0548942
0.056191
0.0563323
0.0551844
0.0528501
0.0493031
0.0446034
0.038828
0.0319966
0.0242785
0.015659
0.00638314
-0.00359213
-0.0139656
-0.0248012
-0.0357632
-0.0469323
-0.0579577
-0.0689329
-0.0795121
-0.0897977
-0.099465
-0.108625
-0.116987
-0.124668
-0.131418
-0.137365
-0.142302
-0.146339
-0.149447
-0.151333
-0.152536
-0.151473
-0.1498
-0.144176
-0.137446
-0.125721
-0.112242
-0.0945211
-0.0749215
-0.0533515
-0.0304313
-0.0082394
0.0144258
0.0334802
0.0517974
0.0639175
0.0738924
0.0776815
0.0789402
0.0773539
0.0751094
0.0736833
0.0816218
0.0825273
0.0835603
0.083274
0.0786344
0.0717283
0.0577224
0.0424914
0.021414
0.000507066
-0.022774
-0.0450516
-0.0664587
-0.0864735
-0.102988
-0.118056
-0.127853
-0.13661
-0.140013
-0.143006
-0.142144
-0.141183
-0.138244
-0.134851
-0.130504
-0.125222
-0.119192
-0.112157
-0.104503
-0.0959343
-0.0869307
-0.0771543
-0.0671689
-0.0565992
-0.0460753
-0.0351926
-0.0246244
-0.0139479
-0.00385145
0.00609173
0.015209
0.0239149
0.0315843
0.038602
0.0444221
0.0493817
0.0530411
0.0556753
0.0569718
0.0571329
0.0559852
0.0536543
0.0501082
0.0453961
0.0396222
0.0327644
0.0250482
0.0163907
0.00711725
-0.0029046
-0.0132754
-0.0241629
-0.0351222
-0.0463453
-0.0573679
-0.0683965
-0.0789729
-0.0893087
-0.0989736
-0.108179
-0.116538
-0.124258
-0.131007
-0.136985
-0.14192
-0.145971
-0.149079
-0.150896
-0.1521
-0.1508
-0.149134
-0.143113
-0.1364
-0.124237
-0.110784
-0.0927455
-0.0731786
-0.0515293
-0.028643
-0.00665072
0.0159848
0.034595
0.0528919
0.0644388
0.074405
0.0776869
0.0789457
0.077073
0.0748305
0.0733275
0.0815263
0.0825258
0.0835585
0.0836003
0.0789663
0.0725977
0.058608
0.0439205
0.0228705
0.00230261
-0.0209435
-0.0431766
-0.0645477
-0.0848039
-0.101286
-0.116799
-0.126572
-0.135833
-0.139224
-0.142629
-0.141763
-0.141031
-0.138093
-0.134758
-0.130412
-0.125104
-0.119076
-0.111993
-0.104341
-0.0957123
-0.0867112
-0.0768643
-0.0668816
-0.0562332
-0.0457121
-0.0347454
-0.0241801
-0.0134176
-0.00332396
0.00670316
0.0158179
0.0246016
0.032269
0.0393546
0.0451732
0.0501874
0.0538457
0.0565188
0.0578149
0.0579973
0.05685
0.0545227
0.0509776
0.0462521
0.0404798
0.0335934
0.0258794
0.0171809
0.00790997
-0.00216217
-0.0125301
-0.0234737
-0.0344299
-0.0457115
-0.056731
-0.0678172
-0.0783907
-0.0887806
-0.0984428
-0.107697
-0.116054
-0.123815
-0.130562
-0.136575
-0.141509
-0.145574
-0.148681
-0.150424
-0.15163
-0.150073
-0.148416
-0.141965
-0.13527
-0.122635
-0.109211
-0.0908281
-0.0712966
-0.0495616
-0.0267119
-0.00493519
0.0176681
0.0357988
0.0540739
0.0650017
0.0749584
0.0776926
0.0789517
0.0767697
0.0745293
0.0729432
0.0814698
0.0825204
0.0834018
0.0835602
0.0793592
0.073276
0.0599487
0.0455687
0.0250003
0.00467206
-0.0182148
-0.0404472
-0.061671
-0.0821512
-0.0988427
-0.114663
-0.12486
-0.134438
-0.138223
-0.141915
-0.14129
-0.14074
-0.137876
-0.134589
-0.13021
-0.124885
-0.118833
-0.111717
-0.104035
-0.0953654
-0.0863289
-0.0764342
-0.0664117
-0.0557098
-0.0451456
-0.0341217
-0.0235112
-0.0126902
-0.00255095
0.0075333
0.0166922
0.0255289
0.0332368
0.0403688
0.0462226
0.0512741
0.0549606
0.0576603
0.0589765
0.0591739
0.0580381
0.0557134
0.0521714
0.0474371
0.0416599
0.0347545
0.0270288
0.0183027
0.00901473
-0.00109108
-0.01148
-0.0224614
-0.0334409
-0.0447617
-0.0558058
-0.0669306
-0.0775286
-0.0879549
-0.0976407
-0.106927
-0.115306
-0.123096
-0.129864
-0.135899
-0.140848
-0.144923
-0.148094
-0.149774
-0.1509
-0.149154
-0.147219
-0.140497
-0.133388
-0.120482
-0.106678
-0.0880644
-0.0684424
-0.0465925
-0.0240272
-0.00237791
0.0197678
0.0375523
0.0552854
0.0658248
0.0751539
0.0775492
0.0784582
0.0761392
0.0741074
0.0724751
0.0814601
0.0825104
0.0832238
0.0833798
0.0797985
0.0737238
0.0618781
0.0475468
0.0284945
0.00825444
-0.0137811
-0.0359085
-0.0570736
-0.0774506
-0.0947735
-0.110509
-0.12185
-0.131374
-0.136445
-0.140114
-0.140463
-0.139908
-0.137447
-0.134161
-0.129794
-0.124471
-0.118341
-0.111228
-0.10345
-0.0947832
-0.0856346
-0.0757431
-0.0655947
-0.0548963
-0.0441957
-0.0331753
-0.0224222
-0.0116047
-0.00132209
0.00875892
0.0180561
0.0268899
0.0347246
0.0418543
0.0478176
0.0528675
0.0566413
0.0593401
0.0607178
0.0609151
0.0598134
0.0574895
0.0539545
0.0492217
0.0434265
0.0365233
0.0287579
0.0200347
0.0106899
0.000587304
-0.00987081
-0.0208487
-0.0319049
-0.0432221
-0.0543462
-0.0654674
-0.0761452
-0.0865682
-0.0963308
-0.105615
-0.114065
-0.121853
-0.128686
-0.13472
-0.139717
-0.14379
-0.146889
-0.148571
-0.149211
-0.147478
-0.144518
-0.137832
-0.129498
-0.116661
-0.101961
-0.0834443
-0.063587
-0.0418433
-0.0197749
0.00177674
0.0227051
0.0404184
0.0564714
0.0669836
0.0749257
0.077329
0.0777507
0.0754412
0.0735424
0.0719112
0.0814208
0.0824707
0.0833457
0.083497
0.0805677
0.0744957
0.0639615
0.0496829
0.0322677
0.0121228
-0.00899347
-0.0310074
-0.0521091
-0.0723747
-0.0903794
-0.106023
-0.1186
-0.128065
-0.134526
-0.138169
-0.139571
-0.139009
-0.136984
-0.133698
-0.129344
-0.124023
-0.117811
-0.1107
-0.102818
-0.0941545
-0.084885
-0.0749968
-0.0647126
-0.0540179
-0.04317
-0.0321534
-0.0212464
-0.0104326
4.8893e-06
0.0100824
0.0195288
0.0283596
0.0363313
0.0434584
0.04954
0.0545881
0.0584561
0.061154
0.0625981
0.0627954
0.0617306
0.0594074
0.05588
0.0511489
0.0453341
0.0384334
0.0306251
0.0219049
0.0124987
0.00239969
-0.00813314
-0.0191072
-0.0302463
-0.0415595
-0.05277
-0.0638874
-0.0746514
-0.0850707
-0.0949162
-0.104197
-0.112725
-0.12051
-0.127414
-0.133446
-0.138495
-0.142567
-0.145589
-0.147271
-0.147387
-0.145668
-0.141602
-0.134954
-0.125298
-0.112535
-0.0968681
-0.0784552
-0.058344
-0.0367149
-0.0151829
0.0062631
0.0258769
0.0435134
0.057752
0.0682348
0.0749309
0.0773485
0.0771395
0.0748413
0.0728874
0.0712574
0.0809136
0.0819626
0.0840493
0.0842101
0.0830882
0.077084
0.0680907
0.0539282
0.0372414
0.0172284
-0.00377452
-0.0256646
-0.0474303
-0.0675932
-0.0868414
-0.102415
-0.116392
-0.125821
-0.133461
-0.137091
-0.139239
-0.138676
-0.136924
-0.13364
-0.129283
-0.123963
-0.117619
-0.110511
-0.102454
-0.0937933
-0.0843078
-0.0744234
-0.0638892
-0.0531985
-0.042076
-0.0310636
-0.0198692
-0.00905952
0.00166476
0.0117385
0.0214569
0.0302843
0.0384992
0.0456237
0.051907
0.0569532
0.0609713
0.0636681
0.0652035
0.0654007
0.0643652
0.0620429
0.0584836
0.0537542
0.0478511
0.040953
0.033008
0.0242911
0.0147105
0.00461525
-0.00611719
-0.0170871
-0.0284382
-0.0397473
-0.0511697
-0.0622829
-0.0732477
-0.0836631
-0.0936891
-0.102966
-0.111648
-0.11943
-0.126458
-0.132487
-0.137639
-0.141709
-0.144731
-0.146414
-0.146214
-0.144502
-0.139595
-0.13297
-0.122075
-0.109365
-0.0923738
-0.0740494
-0.0529727
-0.03146
-0.00971281
0.0116051
0.0306215
0.0481335
0.0612382
0.071625
0.0764656
0.078842
0.076767
0.0744739
0.071457
0.0698292
0.0803583
0.0814092
0.0844802
0.0847626
0.0857411
0.0796985
0.0725633
0.0585302
0.0426945
0.0228252
0.00186485
-0.0198914
-0.0424205
-0.0624734
-0.0831423
-0.0986415
-0.114217
-0.123609
-0.13252
-0.136138
-0.139028
-0.138463
-0.136942
-0.133659
-0.129239
-0.123922
-0.117432
-0.110326
-0.102077
-0.0934202
-0.083697
-0.0738166
-0.063007
-0.0523206
-0.0408955
-0.0298876
-0.0183763
-0.00757102
0.00346936
0.013539
0.023557
0.0323808
0.0408635
0.0479851
0.0544902
0.0595344
0.0637171
0.0664129
0.0680479
0.068245
0.0672405
0.0649192
0.0613232
0.0565958
0.0505936
0.0436983
0.0356008
0.0268874
0.0171127
0.00702159
-0.0039328
-0.0148983
-0.026485
-0.0377894
-0.0494471
-0.0605558
-0.0717431
-0.0821544
-0.0923802
-0.101653
-0.110505
-0.118284
-0.125447
-0.131473
-0.136739
-0.140808
-0.143907
-0.14559
-0.145131
-0.143428
-0.137661
-0.131062
-0.118804
-0.106149
-0.0876204
-0.0693904
-0.0471905
-0.0258031
-0.00376743
0.0174114
0.0358635
0.0532395
0.0650219
0.0753007
0.0779731
0.0803911
0.0762434
0.0738246
0.0699122
0.0682834
0.0792763
0.080587
0.0836525
0.0849091
0.0858923
0.0815574
0.0746748
0.0623266
0.0467952
0.0281884
0.00735612
-0.0138551
-0.0363313
-0.0566311
-0.0773616
-0.0937605
-0.109497
-0.1201
-0.129164
-0.133871
-0.136857
-0.136944
-0.135401
-0.132331
-0.127773
-0.122483
-0.115984
-0.108864
-0.100603
-0.091917
-0.0821793
-0.0722539
-0.0614272
-0.0506799
-0.039236
-0.0281525
-0.0166213
-0.0057284
0.00533205
0.0154972
0.0255345
0.0344571
0.0429571
0.0501754
0.0566951
0.061829
0.0660228
0.0687972
0.0704393
0.0707013
0.0696996
0.0674282
0.0638309
0.0591391
0.0531316
0.0462596
0.0381536
0.0294542
0.0196684
0.0095854
-0.00138179
-0.0123414
-0.0239418
-0.0352399
-0.0469112
-0.0580113
-0.0692113
-0.0796108
-0.089848
-0.0991068
-0.107968
-0.115731
-0.122902
-0.128914
-0.134186
-0.138212
-0.14147
-0.142927
-0.142498
-0.140128
-0.134256
-0.126618
-0.114207
-0.100542
-0.0818803
-0.0631228
-0.0409147
-0.0197491
0.00218526
0.0223741
0.0406543
0.0564554
0.0678977
0.0763685
0.0788019
0.0795586
0.0754266
0.0721301
0.0682284
0.066381
0.078108
0.0796992
0.0827587
0.0850673
0.0860556
0.0835646
0.0767373
0.0664192
0.0509961
0.0339095
0.0132163
-0.00735428
-0.0296832
-0.050299
-0.0708944
-0.0883922
-0.104024
-0.116093
-0.125093
-0.131121
-0.134078
-0.134971
-0.13342
-0.130627
-0.126072
-0.120812
-0.114316
-0.107179
-0.0989221
-0.0902016
-0.0804686
-0.0704904
-0.0596689
-0.0488503
-0.0374117
-0.0262398
-0.0147141
-0.00371895
0.00733626
0.017613
0.0276455
0.0366833
0.0451793
0.0525104
0.0590271
0.0642655
0.0684574
0.0713234
0.0729647
0.0733022
0.072301
0.0700875
0.0664919
0.0618414
0.0558368
0.0489916
0.0408895
0.032206
0.0224248
0.012351
0.00138901
-0.00956431
-0.0211591
-0.0324504
-0.0441161
-0.0552066
-0.0664014
-0.0767875
-0.0870199
-0.0962621
-0.10512
-0.112864
-0.120031
-0.126027
-0.131296
-0.135273
-0.13853
-0.139692
-0.139275
-0.136086
-0.130257
-0.121364
-0.109035
-0.0941492
-0.0756085
-0.056199
-0.0341356
-0.0132176
0.00857204
0.0275813
0.0457377
0.059636
0.0709959
0.0772892
0.0796968
0.0786597
0.0745447
0.0703003
0.0664101
0.0643268
0.0768463
0.0787404
0.0817935
0.0852381
0.0862319
0.0857321
0.0789646
0.0708385
0.0555323
0.0400874
0.0195444
-0.000334415
-0.0225044
-0.0434614
-0.0639109
-0.0825952
-0.0981148
-0.111766
-0.120697
-0.128152
-0.131076
-0.13284
-0.131281
-0.128787
-0.124234
-0.119008
-0.112515
-0.105359
-0.0971067
-0.0883493
-0.0786212
-0.0685862
-0.0577701
-0.0468745
-0.0354418
-0.0241745
-0.0126547
-0.00154907
0.00950048
0.0198977
0.0299251
0.0390873
0.0475789
0.0550319
0.0615452
0.0668966
0.0710863
0.0740512
0.0756917
0.0761106
0.07511
0.0729592
0.0693655
0.0647595
0.058758
0.0519418
0.0438438
0.0351775
0.0254014
0.0153374
0.00438103
-0.00656545
-0.0181543
-0.0294382
-0.041098
-0.052178
-0.0633671
-0.0737388
-0.0839659
-0.0931904
-0.102043
-0.109769
-0.116932
-0.122909
-0.128176
-0.1321
-0.135355
-0.136198
-0.135796
-0.131721
-0.125938
-0.11569
-0.103449
-0.0872456
-0.0688359
-0.0487223
-0.0268151
-0.00616465
0.0154688
0.0332042
0.0512268
0.0630705
0.0743414
0.0782835
0.0806632
0.0776889
0.0735924
0.0683244
0.0644466
0.0621085
0.0752804
0.07727
0.0799714
0.0836728
0.0853117
0.0855674
0.0804219
0.0732308
0.0598886
0.045198
0.026221
0.0067253
-0.0144948
-0.0354841
-0.0557085
-0.0747773
-0.0908138
-0.105032
-0.114926
-0.122923
-0.126754
-0.12887
-0.12782
-0.125466
-0.121045
-0.115833
-0.109479
-0.102318
-0.0941956
-0.0854268
-0.0758421
-0.0657884
-0.0551211
-0.0441993
-0.0329125
-0.021612
-0.0102273
0.000917423
0.0118498
0.0222904
0.0322246
0.0414322
0.0498596
0.0573574
0.0638388
0.0692324
0.0734245
0.076427
0.0781051
0.0785556
0.0776275
0.0755021
0.0720147
0.0674277
0.061564
0.0547615
0.0468292
0.0381728
0.0285856
0.0185291
0.00777888
-0.00316108
-0.0145335
-0.0258105
-0.0372516
-0.0483237
-0.0593003
-0.0696628
-0.0796924
-0.0889066
-0.0975848
-0.1053
-0.112319
-0.118287
-0.123405
-0.127306
-0.130409
-0.131105
-0.130201
-0.125778
-0.119213
-0.108471
-0.0955609
-0.0789138
-0.0604423
-0.0401484
-0.018956
0.00148086
0.0217775
0.0389026
0.0551487
0.0660864
0.0754155
0.0783829
0.0793977
0.0757292
0.0712225
0.0657628
0.0621161
0.0596996
0.0730221
0.0750081
0.0780539
0.0817283
0.0849133
0.085148
0.0824344
0.0752921
0.0648304
0.0502665
0.0336472
0.0143274
-0.00568508
-0.0264777
-0.0467035
-0.0655856
-0.0826533
-0.0967275
-0.108238
-0.116149
-0.121468
-0.123547
-0.123424
-0.121065
-0.117071
-0.111862
-0.105699
-0.098543
-0.0906116
-0.0818481
-0.0724665
-0.0624188
-0.0519552
-0.04104
-0.0299462
-0.0186524
-0.00743961
0.0036985
0.0144891
0.0249234
0.0347529
0.0439549
0.0523192
0.0598126
0.0662755
0.0716658
0.0758853
0.078886
0.0806373
0.0810876
0.0802776
0.0781534
0.0748271
0.0702429
0.0645805
0.0577821
0.0500875
0.0414362
0.0321178
0.0220673
0.0116102
0.000676778
-0.0103867
-0.021657
-0.0327834
-0.0438488
-0.0545161
-0.0648724
-0.0746097
-0.0838184
-0.0922331
-0.0999437
-0.106739
-0.112703
-0.117615
-0.121514
-0.124149
-0.124852
-0.12303
-0.118659
-0.110802
-0.100168
-0.0860935
-0.0696113
-0.0508063
-0.0307082
-0.0103075
0.00994095
0.0283166
0.0452907
0.0587233
0.0695719
0.0759371
0.0788967
0.0776619
0.0740446
0.0681617
0.0627414
0.0589243
0.0565127
0.0694773
0.0714735
0.0758248
0.079652
0.085839
0.0861464
0.0870607
0.0799891
0.0721722
0.0578047
0.0426996
0.023597
0.00385411
-0.0167286
-0.0380158
-0.0567194
-0.0756976
-0.0896486
-0.103061
-0.110902
-0.117521
-0.11957
-0.119825
-0.117463
-0.113419
-0.108215
-0.102135
-0.0949845
-0.0871778
-0.0784208
-0.069146
-0.0591057
-0.0487242
-0.0378168
-0.0267755
-0.0154899
-0.00429761
0.0068325
0.0176342
0.0280611
0.0379306
0.0471261
0.0555552
0.0630433
0.0695901
0.0749767
0.079294
0.0822928
0.0841512
0.0846015
0.0839051
0.0817826
0.0785751
0.0739944
0.0684565
0.0616632
0.0541007
0.0454559
0.0362795
0.0262365
0.0159336
0.00500826
-0.00588775
-0.0171496
-0.0280958
-0.039153
-0.0496299
-0.0599784
-0.0695202
-0.0787219
-0.0869431
-0.0946478
-0.10126
-0.10722
-0.112042
-0.115938
-0.118718
-0.119428
-0.117292
-0.112964
-0.103827
-0.0932853
-0.0775007
-0.0611683
-0.0409516
-0.0210529
-0.000365323
0.0196711
0.0369507
0.0537211
0.0649567
0.0756405
0.0789215
0.0818516
0.0768927
0.0732314
0.064614
0.0590642
0.0541706
0.0517535
0.0654323
0.0677049
0.0720327
0.0771095
0.0832449
0.0860926
0.0870078
0.0832051
0.0755574
0.0642232
0.0493059
0.0324364
0.0129056
-0.0066127
-0.0277003
-0.0465875
-0.0654492
-0.0805179
-0.0938812
-0.103134
-0.109738
-0.112866
-0.113062
-0.111288
-0.107131
-0.102353
-0.0962772
-0.0895761
-0.0817749
-0.073511
-0.0642427
-0.0547179
-0.0443436
-0.0339517
-0.022918
-0.0121252
-0.000940749
0.00974045
0.0205346
0.0305755
0.0404382
0.0493266
0.0577497
0.0650221
0.0715644
0.0768354
0.0811497
0.0841382
0.0859954
0.0865426
0.0858467
0.0839265
0.0807213
0.0764436
0.0709095
0.0645118
0.0569546
0.0487865
0.0396166
0.0301172
0.0198215
0.00948951
-0.0013989
-0.0120376
-0.0229761
-0.0334017
-0.0438713
-0.0536022
-0.0631374
-0.0717581
-0.0799736
-0.087155
-0.0937625
-0.0992764
-0.104095
-0.107602
-0.1105
-0.110711
-0.108648
-0.103441
-0.0943357
-0.0827972
-0.0670894
-0.0503077
-0.0302429
-0.01098
0.00949048
0.0276854
0.0447646
0.0587552
0.069829
0.0772644
0.0804142
0.0801946
0.0752765
0.0693775
0.0608381
0.0542818
0.0494175
0.046802
0.0610643
0.0636354
0.0679307
0.074364
0.0804437
0.0860346
0.0869506
0.0866779
0.0791225
0.0711423
0.0563935
0.0419815
0.0226672
0.00431085
-0.0165432
-0.0356377
-0.0542871
-0.0705817
-0.083787
-0.0945886
-0.101101
-0.105431
-0.105597
-0.104495
-0.10034
-0.0960223
-0.0899515
-0.083736
-0.0759406
-0.0682092
-0.0589479
-0.0499797
-0.0396132
-0.0297779
-0.0187526
-0.00849194
0.00268413
0.0128806
0.0236666
0.0332907
0.0431459
0.0517027
0.0601195
0.067159
0.0736963
0.0788425
0.0831536
0.0861311
0.0879868
0.0886387
0.0879433
0.0862416
0.0830388
0.0790883
0.0735584
0.0675878
0.0600363
0.0523831
0.0432201
0.0343078
0.0240199
0.0143285
0.00344833
-0.00651734
-0.0174477
-0.0271912
-0.0376529
-0.046717
-0.056245
-0.0642382
-0.0724475
-0.0790641
-0.0856666
-0.0906988
-0.0955136
-0.0986018
-0.101498
-0.101136
-0.0991135
-0.0929334
-0.0839399
-0.071317
-0.0557885
-0.0385191
-0.0186781
-0.000109714
0.0201332
0.0363148
0.0532025
0.064132
0.0750777
0.0789198
0.0820259
0.0784054
0.0735313
0.065216
0.0567607
0.0491194
0.0442849
0.0414553
0.0564003
0.0590084
0.0630708
0.0695355
0.0760926
0.0820838
0.0851064
0.0855227
0.0814534
0.0742234
0.0630082
0.0492321
0.0328393
0.0149042
-0.00398042
-0.0229066
-0.0408614
-0.0572048
-0.0709278
-0.0819017
-0.0895048
-0.0940234
-0.0953589
-0.0944102
-0.0911658
-0.0869389
-0.0816215
-0.0755033
-0.0684833
-0.0608592
-0.0524551
-0.0435997
-0.0341376
-0.0244156
-0.0143038
-0.00415206
0.00614119
0.0162378
0.0262107
0.0357484
0.0448965
0.053384
0.0612315
0.0682215
0.0743534
0.0794724
0.0835609
0.0865343
0.0883618
0.0890332
0.088507
0.0868485
0.0840073
0.0801222
0.0751335
0.0692487
0.0623974
0.0548481
0.0465172
0.0377234
0.0283668
0.0188048
0.00891843
-0.000911475
-0.0108245
-0.0204306
-0.029891
-0.0388211
-0.0474018
-0.0552693
-0.0626198
-0.0691236
-0.0749859
-0.0799224
-0.0840296
-0.0870353
-0.0890446
-0.0885566
-0.0855767
-0.0792769
-0.069765
-0.0570888
-0.041894
-0.0247364
-0.00652397
0.0117023
0.0292245
0.0448388
0.0583884
0.0685978
0.0759818
0.0790685
0.0790589
0.0748169
0.0684345
0.0598201
0.0512714
0.0436451
0.0389432
0.0360907
0.0488069
0.0514044
0.0564067
0.0628725
0.0729571
0.078828
0.0864126
0.08687
0.0870938
0.0800178
0.0725351
0.0589899
0.045134
0.0274753
0.00945854
-0.0091891
-0.0278255
-0.0439378
-0.0591709
-0.0699899
-0.0790726
-0.0835141
-0.0855996
-0.0846394
-0.0818351
-0.077612
-0.0730277
-0.0669148
-0.0608067
-0.0531893
-0.0457585
-0.0369109
-0.028445
-0.0187316
-0.00959888
0.000543884
0.0099144
0.0200021
0.0291455
0.0386748
0.0471191
0.0555992
0.0628959
0.0698798
0.0756348
0.0807492
0.084649
0.0876198
0.0894546
0.0901253
0.0898034
0.0881464
0.085701
0.0818194
0.0774067
0.0715271
0.0654144
0.0578718
0.0504188
0.0416328
0.0332654
0.0237119
0.0148931
0.00507189
-0.00373091
-0.0133286
-0.0216743
-0.0305966
-0.038097
-0.0459576
-0.0523002
-0.0587983
-0.0637604
-0.0686926
-0.0721403
-0.0751434
-0.0768876
-0.0764153
-0.0729436
-0.0667373
-0.0561815
-0.0436824
-0.0277311
-0.0108212
0.00704698
0.0249965
0.0405821
0.0559456
0.0661295
0.0761538
0.0793833
0.0823759
0.078067
0.0738467
0.0632437
0.0547735
0.0432533
0.035638
0.0303996
0.0275589
0.0407147
0.0434783
0.0484411
0.0560239
0.0660216
0.0745824
0.0823867
0.0866594
0.0872866
0.0844838
0.0773542
0.0677724
0.0542676
0.0396361
0.0219317
0.00494914
-0.0135111
-0.0293711
-0.0445519
-0.056085
-0.0651765
-0.0706286
-0.0726744
-0.0726763
-0.0698114
-0.0666535
-0.0621121
-0.0572244
-0.0511722
-0.0449185
-0.0375478
-0.0301528
-0.0217489
-0.0135215
-0.00445004
0.00423213
0.0135445
0.0222561
0.0313468
0.0396409
0.0480401
0.0554767
0.0627377
0.0689132
0.0746433
0.079218
0.0831047
0.0858272
0.0876611
0.0883862
0.0880759
0.0867742
0.0843527
0.081115
0.0767374
0.0717659
0.0656986
0.0592935
0.0518946
0.0444327
0.0361263
0.0280327
0.0192798
0.0109998
0.00226527
-0.00576732
-0.0140446
-0.0214352
-0.0288695
-0.0352862
-0.0415675
-0.0467591
-0.0516668
-0.0554727
-0.0588828
-0.0609678
-0.0627711
-0.0615957
-0.0581895
-0.0514729
-0.0409536
-0.0285402
-0.0127082
0.00296147
0.0205761
0.0359218
0.0511415
0.0628251
0.0726487
0.0784739
0.0813738
0.0802874
0.0756394
0.0681199
0.0573854
0.0468252
0.03543
0.0270766
0.0218749
0.0189664
0.0322215
0.0350972
0.0400446
0.0482653
0.0581185
0.0685789
0.0768846
0.084161
0.0861512
0.0867735
0.0813532
0.0749667
0.0632495
0.0510844
0.0350457
0.0194631
0.00223613
-0.013332
-0.0279339
-0.0399562
-0.0490465
-0.0552893
-0.0577771
-0.0585899
-0.0563123
-0.0539818
-0.0500189
-0.0460833
-0.0406428
-0.0354491
-0.0287537
-0.022488