/*--------------------------------*- C++ -*----------------------------------*\
| =========                 |                                                 |
| \\      /  F ield         | OpenFOAM: The Open Source CFD Toolbox           |
|  \\    /   O peration     | Version:  v2106                                 |
|   \\  /    A nd           | Website:  www.openfoam.com                      |
|    \\/     M anipulation  |                                                 |
\*---------------------------------------------------------------------------*/
FoamFile
{
    version     2.0;
    format      ascii;
    arch        "LSB;label=32;scalar=64";
    class       volScalarField;
    location    "0";
    object      expGpCoeffs33;
}
// * * * * * * * * * * * * * * * * * * * * * * * * * * * * * * * * * * * * * //

dimensions      [0 0 0 0 0 0 0];

internalField   nonuniform List<scalar> 
8000
(
0.0153204
0.0152678
0.0151769
0.0150534
0.0149418
0.0148551
0.0148176
0.0148201
0.0148331
0.0148523
0.0148277
0.0147556
0.0145842
0.0143101
0.0139024
0.0133599
0.012714
0.0119645
0.0112022
0.0104296
0.00972474
0.0090938
0.00852864
0.00803487
0.00755162
0.00707631
0.00658327
0.00607308
0.00555645
0.00503487
0.00452315
0.00402257
0.00354486
0.00309098
0.00266865
0.00227847
0.00192394
0.0016053
0.00132229
0.00107485
0.000859916
0.000677205
0.000522039
0.000394016
0.000288007
0.000203614
0.00013624
8.55546e-05
4.82219e-05
2.40352e-05
1.1382e-05
1.02108e-05
2.09119e-05
4.36035e-05
8.08106e-05
0.000132828
0.000204265
0.000295574
0.000413085
0.000557364
0.000735643
0.000948485
0.00120264
0.00149857
0.00184071
0.00222921
0.00266431
0.00314567
0.00366772
0.00422958
0.00481918
0.00543506
0.00605921
0.00668972
0.00730992
0.00791857
0.00853462
0.00916026
0.00985701
0.0106182
0.011463
0.0123846
0.0133165
0.0142563
0.0151132
0.0158888
0.016535
0.0170528
0.0174443
0.0177102
0.0178698
0.0179248
0.0179105
0.0178273
0.0177374
0.0176498
0.0175934
0.0175702
0.0175621
0.0175629
0.0153247
0.0152721
0.0151784
0.0150549
0.0149375
0.0148506
0.0148149
0.0148173
0.0148345
0.0148537
0.0148336
0.0147617
0.0145946
0.0143207
0.0139139
0.0133716
0.0127197
0.0119703
0.011199
0.0104263
0.00971693
0.00908599
0.00852548
0.00803177
0.00755323
0.00707799
0.0065844
0.00607428
0.00555617
0.00503465
0.00452167
0.00402115
0.00354251
0.00308868
0.00266581
0.00227568
0.00192097
0.00160236
0.00131949
0.00107207
0.000857474
0.000674786
0.00052005
0.000392044
0.000286463
0.000202081
0.000135056
8.43773e-05
4.72632e-05
2.30796e-05
1.04824e-05
9.31138e-06
1.98879e-05
4.25766e-05
7.94737e-05
0.000131484
0.000202442
0.000293739
0.00041065
0.000554911
0.000732569
0.000945384
0.00119905
0.00149494
0.00183688
0.00222533
0.0026607
0.003142
0.0036649
0.00422669
0.00481771
0.00543352
0.00605957
0.00669
0.0073114
0.00791998
0.00853186
0.00915742
0.00984904
0.0106102
0.0114585
0.0123801
0.0133202
0.0142601
0.0151236
0.0158992
0.0165463
0.017064
0.017454
0.0177197
0.0178776
0.0179323
0.0179141
0.0178307
0.0177341
0.0176466
0.0175914
0.0175682
0.0175622
0.017563
0.0153292
0.0152767
0.0151801
0.0150566
0.0149328
0.0148459
0.014812
0.0148143
0.0148359
0.0148552
0.0148401
0.0147683
0.0146059
0.0143321
0.0139264
0.0133842
0.0127259
0.0119765
0.0111955
0.0104228
0.00970849
0.00907756
0.00852207
0.00802842
0.00755498
0.0070798
0.00658563
0.00607557
0.00555587
0.00503442
0.00452007
0.00401962
0.00353997
0.00308621
0.00266274
0.00227266
0.00191776
0.0015992
0.00131646
0.00106908
0.000854836
0.000672173
0.000517902
0.000389914
0.000284796
0.000200425
0.000133778
8.31061e-05
4.6228e-05
2.20477e-05
9.51091e-06
8.3401e-06
1.87821e-05
4.14677e-05
7.80301e-05
0.000130033
0.000200472
0.000291757
0.000408021
0.000552262
0.00072925
0.000942036
0.00119516
0.00149101
0.00183274
0.00222114
0.00265681
0.00313804
0.00366185
0.00422356
0.00481614
0.00543185
0.00605996
0.00669031
0.007313
0.00792149
0.00852887
0.00915435
0.00984043
0.0106016
0.0114536
0.0123753
0.0133243
0.0142643
0.0151348
0.0159103
0.0165586
0.017076
0.0174645
0.0177299
0.0178859
0.0179404
0.0179179
0.0178344
0.0177306
0.0176432
0.0175892
0.0175661
0.0175622
0.0175631
0.0153342
0.0152816
0.0151818
0.0150584
0.0149279
0.0148407
0.0148089
0.0148111
0.0148375
0.0148569
0.014847
0.0147753
0.014618
0.0143445
0.0139399
0.0133979
0.0127326
0.0119832
0.0111918
0.010419
0.00969938
0.00906846
0.00851839
0.00802481
0.00755687
0.00708176
0.00658695
0.00607697
0.00555554
0.00503417
0.00451835
0.00401797
0.00353723
0.00308354
0.00265942
0.0022694
0.00191429
0.00159578
0.00131318
0.00106584
0.000851988
0.000669352
0.000515583
0.000387613
0.000282995
0.000198637
0.000132397
8.17333e-05
4.51101e-05
2.09335e-05
8.46191e-06
7.29127e-06
1.7588e-05
4.02702e-05
7.64711e-05
0.000128467
0.000198346
0.000289617
0.000405183
0.000549402
0.000725666
0.00093842
0.00119097
0.00148677
0.00182828
0.00221662
0.0026526
0.00313376
0.00365856
0.00422019
0.00481443
0.00543006
0.00606038
0.00669063
0.00731473
0.00792313
0.00852565
0.00915104
0.00983114
0.0105923
0.0114483
0.0123701
0.0133288
0.0142688
0.0151469
0.0159224
0.0165717
0.0170891
0.0174758
0.017741
0.0178949
0.0179492
0.017922
0.0178383
0.0177268
0.0176394
0.0175869
0.0175638
0.0175623
0.0175631
0.0153395
0.015287
0.0151837
0.015056
0.0149225
0.0148351
0.0148055
0.0148075
0.0148392
0.0148586
0.0148545
0.014783
0.0146311
0.0143578
0.0139545
0.0134126
0.0127399
0.0119904
0.0111877
0.0104149
0.00968954
0.00905862
0.00851441
0.0080209
0.0075589
0.00708387
0.00658838
0.00607848
0.00555519
0.0050339
0.00451648
0.00401619
0.00353427
0.00308065
0.00265584
0.00226589
0.00191055
0.00159209
0.00130965
0.00106235
0.000848912
0.000666306
0.000513078
0.000385129
0.000281051
0.000196706
0.000130907
8.0251e-05
4.3903e-05
1.97302e-05
7.32916e-06
6.1587e-06
1.62987e-05
3.89772e-05
7.47878e-05
0.000126775
0.00019605
0.000287306
0.000402117
0.000546313
0.000721796
0.000934516
0.00118644
0.0014822
0.00182346
0.00221174
0.00264806
0.00312914
0.00365501
0.00421655
0.00481259
0.00542812
0.00606084
0.00669099
0.00731659
0.0079249
0.00852217
0.00914746
0.0098211
0.0105822
0.0114426
0.0123644
0.0133335
0.0142736
0.01516
0.0159354
0.016586
0.0171031
0.017488
0.017753
0.0179047
0.0179587
0.0179265
0.0178426
0.0177226
0.0176354
0.0175782
0.0175613
0.0175624
0.0175632
0.0153351
0.0152816
0.0151622
0.015027
0.0149078
0.0148101
0.0147984
0.0147943
0.0148404
0.014858
0.0148606
0.0147872
0.0146423
0.0143677
0.0139695
0.0134281
0.0127477
0.0119982
0.0111833
0.0104104
0.00967892
0.00904801
0.00851011
0.00801669
0.00756256
0.00708604
0.00658989
0.00607874
0.00555366
0.00503154
0.00451259
0.00401188
0.00352883
0.00307517
0.0026497
0.00226001
0.00190446
0.00158645
0.00130417
0.0010574
0.000844375
0.000662286
0.000509585
0.000382081
0.000278526
0.000194517
0.000129144
7.87057e-05
4.26246e-05
1.85536e-05
6.22087e-06
5.03958e-06
1.50276e-05
3.75779e-05
7.30104e-05
0.000124745
0.000193434
0.000284309
0.000398388
0.000542095
0.000716818
0.000928983
0.00118031
0.00147553
0.00181654
0.00220444
0.00264108
0.00312203
0.00364892
0.00421072
0.00480849
0.00542474
0.00605976
0.00669111
0.00731817
0.00792803
0.00851841
0.0091436
0.00981026
0.0105714
0.0114364
0.0123584
0.0133387
0.0142788
0.0151738
0.0159488
0.0165973
0.0171154
0.0174968
0.0177637
0.017912
0.0179679
0.0179165
0.0178409
0.017687
0.0176149
0.0175312
0.0175234
0.0175468
0.0175487
0.0153086
0.0152533
0.0151338
0.0149957
0.0148758
0.014775
0.0147621
0.0147537
0.0147985
0.0148144
0.0148157
0.014748
0.0146019
0.014343
0.013944
0.0134256
0.0127454
0.0120162
0.0112004
0.0104353
0.00970433
0.00906964
0.0085363
0.00803163
0.00757997
0.00708729
0.00659123
0.00606641
0.00554142
0.00500977
0.00449092
0.00398509
0.00350213
0.00304739
0.00262199
0.00223439
0.00187891
0.00156507
0.00128285
0.00104119
0.000828204
0.000651195
0.000498523
0.0003754
0.000271865
0.000191183
0.000125823
7.75494e-05
4.14751e-05
1.8419e-05
6.08863e-06
4.79039e-06
1.47765e-05
3.60392e-05
7.1465e-05
0.000120667
0.000189343
0.000276436
0.000390493
0.000529364
0.000704054
0.000910853
0.00116213
0.00145235
0.0017933
0.00217777
0.00261433
0.00309474
0.00362153
0.00418688
0.00478454
0.0054092
0.00604411
0.0066889
0.00731583
0.00794273
0.00853096
0.00916921
0.00983127
0.0105985
0.0114626
0.0123797
0.0133608
0.0142829
0.015178
0.0159295
0.0165787
0.0170774
0.01746
0.0177147
0.0178645
0.0179145
0.0178648
0.0177874
0.0176351
0.017563
0.0174804
0.0174746
0.0174983
0.017502
0.01528
0.0152227
0.015103
0.0149619
0.0148413
0.014737
0.0147228
0.0147098
0.0147532
0.0147673
0.0147672
0.0147056
0.0145584
0.0143163
0.0139165
0.0134229
0.0127424
0.0120369
0.0112213
0.0104692
0.00973869
0.009102
0.0085689
0.00805035
0.00759878
0.00708864
0.00659268
0.00605308
0.0055282
0.00498627
0.00446753
0.00395616
0.0034733
0.00301738
0.00259207
0.00220674
0.00185133
0.00154199
0.00125983
0.00102368
0.000810741
0.000639219
0.000486578
0.000368186
0.000264672
0.000187584
0.000122237
7.63009e-05
4.02339e-05
1.82737e-05
5.94584e-06
4.5213e-06
1.45054e-05
3.43775e-05
6.97962e-05
0.000116265
0.000184927
0.000267933
0.000381968
0.000515615
0.00069027
0.000891275
0.0011425
0.00142733
0.00176821
0.00214896
0.00258543
0.00306527
0.00359195
0.00416113
0.00475867
0.00539243
0.0060272
0.0066865
0.00731331
0.00795861
0.00854672
0.00920103
0.00986283
0.0106351
0.0114987
0.0124061
0.0133867
0.0142873
0.0151826
0.0159087
0.0165587
0.0170365
0.0174203
0.0176618
0.0178132
0.0178569
0.017809
0.0177296
0.017579
0.017507
0.0174255
0.0174219
0.0174459
0.0174516
0.0152491
0.0151897
0.0150699
0.0149254
0.014804
0.014696
0.0146805
0.0146625
0.0147043
0.0147165
0.0147149
0.0146599
0.0145114
0.0142875
0.0138868
0.0134199
0.0127391
0.0120592
0.0112439
0.0105058
0.00977579
0.00913695
0.0086041
0.00807056
0.00761909
0.0070901
0.00659425
0.00603869
0.00551393
0.0049609
0.00444226
0.00392493
0.00344217
0.00298498
0.00255976
0.00217687
0.00182154
0.00151707
0.00123496
0.00100478
0.000791885
0.000626287
0.000473679
0.000360396
0.000256905
0.000183697
0.000118364
7.49527e-05
3.88936e-05
1.81168e-05
5.79165e-06
4.23074e-06
1.42126e-05
3.25832e-05
6.79942e-05
0.00011151
0.000180157
0.000258752
0.000372761
0.000500769
0.000675385
0.000870134
0.0011213
0.0014003
0.00174111
0.00211786
0.00255424
0.00303345
0.00356001
0.00413333
0.00473074
0.00537431
0.00600895
0.00668391
0.00731058
0.00797575
0.00856373
0.00923539
0.00989691
0.0106747
0.0115378
0.0124345
0.0134148
0.014292
0.0151874
0.0158862
0.016537
0.0169922
0.0173774
0.0176047
0.0177578
0.0177947
0.0177487
0.0176672
0.0175185
0.0174465
0.0173663
0.0173651
0.0173893
0.0173971
0.0152157
0.015154
0.015034
0.014886
0.0147637
0.0146517
0.0146348
0.0146113
0.0146515
0.0146616
0.0146584
0.0146106
0.0144606
0.0142564
0.0138548
0.0134168
0.0127357
0.0120833
0.0112683
0.0105454
0.00981585
0.00917468
0.00864211
0.00809238
0.00764102
0.00709167
0.00659594
0.00602316
0.00549852
0.00493349
0.00441498
0.0038912
0.00340856
0.00294999
0.00252488
0.00214462
0.00178938
0.00149016
0.00120812
0.000984367
0.000771523
0.000612322
0.00045975
0.000351984
0.000248517
0.0001795
0.000114183
7.34968e-05
3.74462e-05
1.79474e-05
5.62515e-06
3.91697e-06
1.38965e-05
3.06457e-05
6.60483e-05
0.000106376
0.000175007
0.000248838
0.00036282
0.000484737
0.000659313
0.000847305
0.00109841
0.00137112
0.00171185
0.00208428
0.00252055
0.00299908
0.00352552
0.00410331
0.00470058
0.00535475
0.00598924
0.00668112
0.00730764
0.00799426
0.0085821
0.0092725
0.00993372
0.0107174
0.0115799
0.0124651
0.0134451
0.014297
0.0151927
0.0158619
0.0165136
0.0169445
0.0173311
0.017543
0.0176981
0.0177275
0.0176836
0.0175999
0.0174531
0.0173811
0.0173023
0.0173037
0.0173282
0.0173383
0.0151797
0.0151155
0.0149953
0.0148434
0.0147201
0.0146039
0.0145854
0.0145561
0.0145945
0.0146023
0.0145973
0.0145573
0.0144058
0.0142229
0.0138201
0.0134133
0.0127319
0.0121094
0.0112947
0.0105881
0.00985911
0.00921543
0.00868315
0.00811594
0.0076647
0.00709337
0.00659777
0.00600638
0.00548188
0.0049039
0.00438552
0.00385477
0.00337226
0.00291221
0.0024872
0.0021098
0.00175464
0.0014611
0.00117913
0.000962325
0.000749536
0.000597242
0.00044471
0.000342901
0.00023946
0.000174968
0.000109667
7.19247e-05
3.58833e-05
1.77645e-05
5.44535e-06
3.57815e-06
1.35551e-05
2.85535e-05
6.3947e-05
0.000100832
0.000169446
0.000238132
0.000352085
0.000467426
0.000641957
0.000822653
0.0010737
0.00133961
0.00168025
0.00204801
0.00248417
0.00296197
0.00348828
0.00407089
0.004668
0.00533363
0.00596796
0.0066781
0.00730447
0.00801425
0.00860194
0.00931256
0.00997346
0.0107634
0.0116254
0.0124983
0.0134778
0.0143025
0.0151984
0.0158356
0.0164884
0.0168929
0.0172811
0.0174765
0.0176335
0.0176549
0.0176133
0.0175271
0.0173825
0.0173106
0.0172333
0.0172373
0.0172623
0.0172748
0.0151408
0.0150739
0.0149535
0.0147975
0.0146732
0.0145522
0.0145321
0.0144965
0.014533
0.0145383
0.0145314
0.0144997
0.0143466
0.0141866
0.0137828
0.0134097
0.0127278
0.0121375
0.0113231
0.0106343
0.00990582
0.00925943
0.00872747
0.00814139
0.00769027
0.00709521
0.00659975
0.00598827
0.0054639
0.00487195
0.00435372
0.00381544
0.00333306
0.00287141
0.00244652
0.00207219
0.00171714
0.00142972
0.00114783
0.000938523
0.000725793
0.000580958
0.000428468
0.000333092
0.00022968
0.000170073
0.000104791
7.02271e-05
3.41957e-05
1.75669e-05
5.2512e-06
3.21228e-06
1.31865e-05
2.62942e-05
6.16779e-05
9.48459e-05
0.00016344
0.000226572
0.000340494
0.000448732
0.000623215
0.000796034
0.00104701
0.00130558
0.00164612
0.00200885
0.00244489
0.0029219
0.00344806
0.00403588
0.00463283
0.00531082
0.00594497
0.00667484
0.00730103
0.00803584
0.00862337
0.00935583
0.0100164
0.0108132
0.0116746
0.012534
0.0135131
0.0143084
0.0152046
0.0158073
0.0164611
0.0168372
0.0172271
0.0174045
0.0175638
0.0175765
0.0175374
0.0174486
0.0173062
0.0172344
0.0171587
0.0171657
0.017191
0.0172062
0.0150717
0.0150037
0.0148585
0.0147106
0.0145907
0.0144754
0.0144483
0.0144126
0.0144428
0.0144466
0.014434
0.0144093
0.0142597
0.0141175
0.0137331
0.0133845
0.0127276
0.012163
0.0113645
0.0106936
0.00996766
0.00932148
0.00878334
0.0081815
0.00771718
0.00710573
0.00659388
0.00596854
0.00543235
0.00483077
0.00430538
0.00376195
0.00327691
0.0028142
0.00239042
0.00201827
0.00166698
0.00138384
0.00110716
0.000903083
0.000695893
0.000556249
0.000408793
0.000317888
0.00021851
0.000162299
9.9852e-05
6.74956e-05
3.30921e-05
1.74985e-05
5.64785e-06
3.4898e-06
1.27694e-05
2.45648e-05
5.80339e-05
8.86207e-05
0.00015402
0.000213293
0.000322805
0.000426107
0.000595286
0.000762626
0.00100809
0.00126154
0.0015974
0.0019566
0.00239008
0.00286649
0.00339355
0.00398492
0.00458735
0.00527384
0.00591868
0.00666215
0.0073045
0.00805658
0.00865871
0.00940937
0.010078
0.0108782
0.0117398
0.0125844
0.0135507
0.0143217
0.0151941
0.0157716
0.0164024
0.016757
0.0171357
0.0172992
0.0174555
0.0174615
0.0174204
0.0173231
0.0171855
0.0171002
0.0170225
0.0170173
0.0170779
0.0170941
0.0149674
0.0148993
0.0147531
0.0146037
0.0144878
0.0143694
0.0143249
0.014285
0.0142946
0.0142937
0.0142767
0.0142477
0.014124
0.0139781
0.0136574
0.0133068
0.0127417
0.0121773
0.0114592
0.0107896
0.0100924
0.00944725
0.00887226
0.00827073
0.00774487
0.00713361
0.00657206
0.00594692
0.00537474
0.00477334
0.00422607
0.00368282
0.0031895
0.00272693
0.00230626
0.00193423
0.00159412
0.00131107
0.00104996
0.000845943
0.000655353
0.000515754
0.000383408
0.000292532
0.00020527
0.000149077
9.51512e-05
6.28052e-05
3.32938e-05
1.77052e-05
7.25057e-06
5.09321e-06
1.22819e-05
2.40735e-05
5.17852e-05
8.23622e-05
0.00013816
0.000197414
0.00029368
0.000396949
0.000550228
0.000717515
0.000946485
0.00119986
0.00152178
0.00188086
0.00230686
0.00278312
0.00331321
0.00390439
0.00452371
0.00520997
0.00588743
0.00663067
0.00732215
0.00807398
0.00874122
0.00949153
0.0102065
0.0110056
0.0118511
0.0126942
0.01359
0.0143605
0.015142
0.015721
0.0162759
0.016634
0.0169622
0.0171305
0.0172602
0.0172721
0.0172278
0.0171366
0.0170131
0.0169326
0.016856
0.016853
0.0169149
0.0169312
0.0148566
0.0147884
0.0146417
0.0144908
0.0143739
0.0142523
0.0141917
0.0141473
0.0141345
0.0141287
0.014107
0.0140731
0.0139773
0.0138276
0.0135757
0.013223
0.012757
0.0121926
0.0115615
0.0108932
0.010227
0.00958307
0.00896827
0.00836707
0.00777477
0.00716372
0.0065485
0.00592357
0.00531252
0.00471134
0.00414044
0.00359737
0.0030951
0.0026327
0.00221538
0.00184348
0.00151544
0.00123249
0.000988184
0.00078424
0.000611576
0.000472026
0.000355997
0.000265152
0.000190974
0.000134799
9.00751e-05
5.77403e-05
3.35116e-05
1.79284e-05
8.98125e-06
6.82464e-06
1.17556e-05
2.35431e-05
4.50376e-05
7.56039e-05
0.000121034
0.000180268
0.00026223
0.000365463
0.000501574
0.000668802
0.000879964
0.00113325
0.00144012
0.00179907
0.00221701
0.0026931
0.00322645
0.00381742
0.00445498
0.00514101
0.0058537
0.00659667
0.00734121
0.00809278
0.00883031
0.00958025
0.0103453
0.0111432
0.0119712
0.0128127
0.0136325
0.0144024
0.0150857
0.0156664
0.0161394
0.0165012
0.0167749
0.0169484
0.0170493
0.0170675
0.0170199
0.0169352
0.0168242
0.0167489
0.0166708
0.0166702
0.0167392
0.0167557
0.014767
0.0146988
0.014526
0.0143736
0.0142344
0.0141087
0.014033
0.0139834
0.0139601
0.0139489
0.0139386
0.0139001
0.0138564
0.0137035
0.01354
0.0131863
0.0128121
0.0122487
0.011678
0.0110113
0.010359
0.00971611
0.0090697
0.00846886
0.0078142
0.00720339
0.00652215
0.00589746
0.00523545
0.00463449
0.00403152
0.00348865
0.00297309
0.00251086
0.00209636
0.0017246
0.0014111
0.00112826
0.000905111
0.000701243
0.000551554
0.000412055
0.000317132
0.000226321
0.000169138
0.000112985
8.02314e-05
4.79088e-05
3.0558e-05
1.49807e-05
7.99295e-06
5.83714e-06
7.76458e-06
1.95476e-05
3.27072e-05
6.3262e-05
9.46463e-05
0.000153857
0.000216292
0.000319486
0.000432098
0.000599264
0.000786181
0.00103937
0.00132614
0.00168495
0.00209283
0.00256875
0.00310797
0.00369872
0.00436258
0.00504835
0.00580969
0.00655238
0.00736546
0.00811675
0.00892405
0.00967359
0.0104799
0.0112766
0.0121015
0.0129413
0.013711
0.0144797
0.0150774
0.0156587
0.0160404
0.016405
0.0166117
0.0167898
0.0168536
0.0168777
0.0168109
0.0167329
0.0166035
0.0165343
0.016461
0.0164632
0.0165566
0.0165733
0.0146695
0.0146009
0.014396
0.0142382
0.0140837
0.0139522
0.0138616
0.0138062
0.0137716
0.0137545
0.0137579
0.0137143
0.0137281
0.0135718
0.0135067
0.013152
0.0128779
0.0123155
0.0118051
0.0111401
0.0104983
0.00985662
0.00917881
0.00857835
0.00785717
0.0072466
0.00649366
0.00586922
0.00515168
0.00455097
0.00391302
0.00337037
0.00284025
0.00237821
0.00196672
0.00159511
0.0012974
0.00101467
0.000814525
0.00061074
0.000486053
0.000346612
0.000274666
0.000183892
0.000145216
8.90852e-05
6.93674e-05
3.70579e-05
2.71973e-05
1.16263e-05
6.77219e-06
4.61727e-06
3.27099e-06
1.50492e-05
1.91212e-05
4.96637e-05
6.57272e-05
0.000124914
0.000166043
0.000269195
0.000356166
0.000523264
0.000683731
0.000936815
0.00120166
0.00156033
0.00195729
0.00243301
0.0029787
0.00356921
0.00426182
0.00494731
0.00576176
0.00650415
0.00739186
0.00814284
0.00902482
0.00977392
0.0106217
0.0114171
0.0122423
0.0130803
0.0138009
0.0145682
0.0150736
0.0156554
0.0159366
0.0163041
0.0164383
0.0166213
0.0166451
0.0166755
0.0165853
0.0165145
0.0163647
0.0163024
0.0162315
0.0162378
0.0163588
0.0163759
0.0145142
0.0144416
0.0142359
0.014074
0.0139158
0.0137755
0.013679
0.0136006
0.0135602
0.0135205
0.0135194
0.0134722
0.0134863
0.0133608
0.013305
0.0130152
0.0127551
0.0122675
0.0117654
0.0111488
0.0105067
0.00986336
0.00917407
0.008528
0.00778518
0.00711782
0.00635961
0.00569697
0.00497541
0.00435981
0.0037194
0.00318285
0.00265181
0.00221174
0.00180065
0.0014602
0.00116384
0.000914703
0.000716426
0.000543126
0.000420433
0.000305016
0.000234883
0.000160724
0.000123502
7.76108e-05
5.89136e-05
3.25117e-05
2.32372e-05
1.11449e-05
6.45869e-06
6.14531e-06
4.54499e-06
1.57625e-05
1.91272e-05
4.46225e-05
5.94891e-05
0.0001066
0.000146057
0.000228302
0.000313244
0.000450731
0.000609076
0.000826612
0.00108965
0.00141231
0.00180825
0.00225494
0.00280091
0.0033774
0.00407196
0.0047654
0.00558365
0.00636025
0.00725339
0.00806179
0.00896591
0.00976588
0.0106269
0.0114323
0.0122597
0.0130568
0.0137708
0.014465
0.0149569
0.0154654
0.0157362
0.0160541
0.0161867
0.0163475
0.0163739
0.0164013
0.0163134
0.0162478
0.0161039
0.0160427
0.0159775
0.0159872
0.0161096
0.016131
0.0143465
0.0142696
0.0140631
0.0138968
0.0137344
0.0135848
0.013482
0.0133786
0.0133308
0.0132654
0.0132568
0.0132071
0.0132142
0.0131278
0.0130662
0.0128555
0.0125917
0.0121923
0.0116887
0.0111263
0.0104841
0.00983317
0.00914405
0.00844
0.00769753
0.00696406
0.00620621
0.0054991
0.00477788
0.00414493
0.00350482
0.00297534
0.00244456
0.00203003
0.00161914
0.00131494
0.00101872
0.000808654
0.000610471
0.000472637
0.000350002
0.000262533
0.000192433
0.000137605
0.0001004
6.64205e-05
4.77321e-05
2.82034e-05
1.89333e-05
1.08884e-05
6.2044e-06
8.03354e-06
6.43398e-06
1.69995e-05
2.03625e-05
3.99871e-05
5.48466e-05
8.79068e-05
0.000127346
0.000185269
0.000270171
0.000373204
0.000531475
0.000707655
0.000970567
0.00125134
0.00164709
0.00206001
0.00260572
0.00316592
0.00386015
0.00456287
0.00538073
0.00619717
0.00708989
0.00796512
0.00886881
0.00973357
0.0105943
0.011418
0.0122455
0.0129982
0.0137135
0.0143219
0.0148172
0.0152367
0.0155133
0.0157691
0.0159092
0.0160411
0.0160763
0.016098
0.0160196
0.0159573
0.0158223
0.0157622
0.0157031
0.0157167
0.0158404
0.0158666
0.0141655
0.0140839
0.0138764
0.0137053
0.0135386
0.0133788
0.0132692
0.0131388
0.0130832
0.0129898
0.0129732
0.0129208
0.0129203
0.0128763
0.0128084
0.012683
0.0124152
0.0121111
0.0116059
0.011102
0.0104596
0.00980057
0.00911164
0.00834497
0.00760288
0.00679802
0.00604056
0.00528542
0.00456457
0.00391289
0.00327311
0.00275127
0.00222076
0.00183382
0.00142313
0.00115808
0.000862015
0.000694138
0.000496057
0.00039652
0.000273947
0.000216658
0.000146594
0.000112639
7.54534e-05
5.43368e-05
3.56579e-05
2.35511e-05
1.42858e-05
1.06114e-05
5.92981e-06
1.00725e-05
8.47378e-06
1.83352e-05
2.16965e-05
3.49816e-05
4.98335e-05
6.77214e-05
0.00010714
0.0001388
0.000223659
0.000289488
0.000447678
0.000579201
0.000841978
0.00107751
0.00147307
0.00184952
0.00239495
0.00293756
0.00363143
0.00434418
0.00516162
0.00602107
0.00691333
0.00786073
0.00876396
0.00969867
0.0105592
0.0114027
0.0122302
0.012935
0.0136516
0.0141674
0.0146664
0.0149898
0.0152727
0.0154614
0.0156096
0.0157103
0.0157549
0.0157706
0.0157023
0.0156437
0.0155182
0.0154594
0.0154069
0.0154245
0.0155498
0.0155811
0.0139212
0.0138382
0.0136427
0.0134716
0.0133178
0.0131513
0.0130267
0.0128814
0.0127948
0.0126845
0.0126317
0.012573
0.0125453
0.0125137
0.012447
0.0123513
0.0121248
0.0118541
0.0114076
0.0109222
0.0103109
0.00964314
0.00893264
0.00813754
0.00734896
0.00651653
0.00573912
0.00496552
0.00424696
0.0035882
0.00297123
0.00245256
0.00195905
0.00158301
0.00121579
0.00096611
0.000712463
0.000561109
0.000398585
0.000314027
0.000216986
0.000171491
0.000116696
9.08983e-05
6.09195e-05
4.48285e-05
2.8827e-05
1.96205e-05
1.19874e-05
1.00199e-05
8.0953e-06
1.31391e-05
1.54891e-05
2.50723e-05
3.14599e-05
4.22676e-05
5.55786e-05
6.75399e-05
9.68735e-05
0.000118278
0.000181618
0.000232905
0.000357589
0.000471641
0.00069143
0.000909235
0.00125788
0.00161997
0.00212244
0.00265798
0.00332156
0.00403796
0.00484573
0.00572167
0.00662841
0.00760364
0.00855122
0.00951771
0.0104036
0.0112613
0.0120629
0.012754
0.0134109
0.0138947
0.01434
0.0146294
0.0148888
0.0150554
0.015205
0.0152991
0.015358
0.0153783
0.015332
0.0152808
0.0151812
0.015129
0.0150773
0.0150981
0.0152075
0.0152404
0.0136557
0.0135725
0.0133913
0.0132168
0.0130751
0.0129015
0.0127573
0.0126027
0.0124664
0.0123457
0.0122368
0.012167
0.0121067
0.0120638
0.0120124
0.0119066
0.0117493
0.0114713
0.0111125
0.0106233
0.0100509
0.00938158
0.00863107
0.00783607
0.00697988
0.00614795
0.00532931
0.00455617
0.00383767
0.00317931
0.00259944
0.00208107
0.00165078
0.00127497
0.000983463
0.000733931
0.000555015
0.000403751
0.000304316
0.000219808
0.000168251
0.000122782
9.51875e-05
6.94051e-05
5.21351e-05
3.60537e-05
2.45872e-05
1.53862e-05
1.04306e-05
8.46423e-06
1.13263e-05
1.63671e-05
2.57477e-05
3.53251e-05
4.71212e-05
5.79224e-05
6.8359e-05
8.03132e-05
9.12778e-05
0.000112669
0.000137025
0.000188281
0.000252618
0.000366602
0.000509584
0.000727258
0.000993062
0.00135494
0.0017829
0.00231813
0.00293126
0.00364723
0.00444246
0.00531787
0.00625748
0.00723212
0.00824672
0.00921302
0.0101468
0.0110059
0.0117786
0.0124734
0.0130429
0.0135337
0.0138924
0.0141922
0.0144025
0.0145814
0.0147209
0.0148282
0.0149039
0.0149377
0.0149221
0.014884
0.0148062
0.0147644
0.0147041
0.0147297
0.0148327
0.0148661
0.0134097
0.0133265
0.0131144
0.0129392
0.0128074
0.0126259
0.012462
0.0122965
0.0120988
0.0119667
0.0117954
0.0117133
0.0116342
0.0115789
0.0115828
0.0114669
0.011415
0.0111304
0.0108618
0.0103692
0.00982292
0.00915228
0.00833622
0.00754136
0.00657438
0.00574297
0.00485739
0.00408482
0.00335529
0.00269752
0.00215363
0.00163582
0.00127622
0.000900877
0.0006983
0.000449138
0.000360377
0.000209363
0.000187328
0.000102958
0.000107728
6.2314e-05
6.83889e-05
4.25915e-05
4.06809e-05
2.45617e-05
1.80247e-05
8.78855e-06
6.46929e-06
4.49401e-06
1.29074e-05
1.79757e-05
3.60327e-05
4.56661e-05
6.41902e-05
7.50543e-05
8.15407e-05
9.35397e-05
8.05766e-05
0.000101947
7.61158e-05
0.000127278
0.00011494
0.000228701
0.00027585
0.000493156
0.0006583
0.00101969
0.00136112
0.00189575
0.00245622
0.00317153
0.00396427
0.00483901
0.00583915
0.00681316
0.00794191
0.00890796
0.00991758
0.010778
0.0115359
0.0122339
0.0127189
0.0132162
0.013462
0.0137719
0.0139031
0.0140952
0.0142195
0.0143405
0.0144409
0.0144886
0.0144969
0.0144733
0.0143881
0.0143565
0.0142856
0.0143124
0.0144436
0.0144771
0.0130606
0.0129852
0.0127714
0.0126207
0.0124816
0.0123139
0.0121397
0.011944
0.0117339
0.0115365
0.0113518
0.0111997
0.0111071
0.0110102
0.0110022
0.0108933
0.0108346
0.0105955
0.0103225
0.00987182
0.00932057
0.00864853
0.0078218
0.00699322
0.00601524
0.00517475
0.00428979
0.00356291
0.00283388
0.00226932
0.00172581
0.00133006
0.000970708
0.000724045
0.00052161
0.00038646
0.000297761
0.000230129
0.000208109
0.000168933
0.000173699
0.000137245
0.000143316
0.000100503
9.85934e-05
5.48006e-05
4.82681e-05
1.66086e-05
1.4291e-05
7.08699e-06
1.54945e-05
3.70748e-05
5.51192e-05
9.87575e-05
0.000117269
0.000167621
0.000174103
0.000214505
0.00020155
0.000223654
0.000197841
0.000210178
0.000197848
0.000229714
0.000276829
0.000375765
0.000540794
0.000763399
0.00110459
0.00150271
0.00206278
0.00266875
0.00346094
0.00427572
0.00527516
0.00624956
0.00738891
0.00838753
0.0094084
0.0102726
0.0110362
0.0116898
0.0121798
0.0126166
0.012869
0.0131438
0.0132872
0.0134851
0.0136245
0.0137813
0.0138975
0.013987
0.0140107
0.0140105
0.0139395
0.0139008
0.0138398
0.0138493
0.013983
0.0140107
0.0126836
0.0126167
0.0124005
0.0122768
0.0121299
0.011977
0.0117918
0.0115634
0.0113405
0.0110717
0.0108732
0.010645
0.0105377
0.0103961
0.0103731
0.0102723
0.0102002
0.0100093
0.0097265
0.00931807
0.00876116
0.00808369
0.00725522
0.00638872
0.00541145
0.00456117
0.00367687
0.00299932
0.00227084
0.00180693
0.00126383
0.000999891
0.000640808
0.000533095
0.000330812
0.000318779
0.000230146
0.000252553
0.00023055
0.000240175
0.000244938
0.00021816
0.000224226
0.000163037
0.00016113
8.74537e-05
8.09262e-05
2.50531e-05
2.27372e-05
9.88698e-06
1.82882e-05
5.76988e-05
7.57296e-05
0.000156088
0.000174585
0.000267578
0.000274055
0.000345127
0.000332183
0.000355078
0.000329285
0.000299696
0.000287376
0.000230808
0.000277888
0.000249001
0.000413906
0.000486646
0.000827584
0.00107828
0.00163793
0.00212583
0.00291741
0.00366746
0.00466614
0.00564097
0.00677948
0.00781474
0.00883723
0.00970968
0.010479
0.0110878
0.0115878
0.0119602
0.0122267
0.0124623
0.0126222
0.0128254
0.012982
0.013177
0.0133105
0.013445
0.0134857
0.0135108
0.013455
0.0134086
0.0133585
0.0133494
0.0134857
0.0135071
0.0121953
0.0121295
0.0119722
0.0118459
0.011733
0.0115735
0.0113931
0.011148
0.0108945
0.0105994
0.0103326
0.0100767
0.00987903
0.00971516
0.00960124
0.00948746
0.00935938
0.00916298
0.00887325
0.00846006
0.00791441
0.00722715
0.0064242
0.00554868
0.00463402
0.00378243
0.00300272
0.00233508
0.00175124
0.00130694
0.000932922
0.000694447
0.000502442
0.000421455
0.000359613
0.000371204
0.000378318
0.000417981
0.000438983
0.000457962
0.000456248
0.000431334
0.000394788
0.000330116
0.000269466
0.000190105
0.000130464
6.99841e-05
3.84386e-05
2.45146e-05
3.79746e-05
8.07785e-05
0.000138224
0.000225572
0.00030752
0.000408632
0.000484261
0.000561168
0.000600941
0.000623982
0.000613695
0.000576075
0.00052753
0.000454035
0.000408513
0.000355138
0.0003779
0.000421841
0.000588589
0.000810838
0.00118938
0.0016543
0.00228612
0.00302324
0.00390197
0.00487623
0.00593889
0.00698278
0.00797088
0.00885385
0.00960084
0.0102144
0.0106989
0.0110745
0.011363
0.0116069
0.0118203
0.0120402
0.0122553
0.0124735
0.0126588
0.0128182
0.0128989
0.0129432
0.0129157
0.0128814
0.0128221
0.0128192
0.0128989
0.0129198
0.011719
0.0116527
0.0115009
0.0113728
0.0113439
0.0111718
0.0110069
0.0107485
0.0104139
0.0101034
0.0097088
0.0094352
0.00911432
0.00893075
0.00874684
0.00861319
0.00848013
0.0082669
0.00800338
0.00757864
0.00704161
0.00634853
0.00550305
0.00462713
0.00369641
0.00284557
0.0021666
0.00149955
0.0011053
0.000661389
0.000526358
0.000288093
0.000344167
0.000263252
0.000418368
0.000429949
0.000591051
0.000630679
0.000725813
0.000744775
0.000738714
0.000713822
0.000613201
0.000548586
0.000395249
0.000315957
0.000170462
0.000110035
3.01282e-05
1.62164e-05
3.67204e-05
7.94866e-05
0.000199787
0.000287058
0.000470262
0.000571286
0.000755604
0.000832444
0.000951566
0.000974586
0.000981006
0.000943419
0.000827662
0.000754231
0.000554035
0.000500707
0.00029718
0.000341082
0.000242398
0.000464451
0.000581159
0.00104567
0.00146378
0.00220026
0.00295825
0.00393165
0.00500099
0.00604515
0.00707391
0.00796269
0.00869673
0.00932214
0.00976407
0.0101574
0.0104196
0.0106851
0.01093
0.0111723
0.0114749
0.0117144
0.0120004
0.0121796
0.0123268
0.0123893
0.0123452
0.0123266
0.0121981
0.0121978
0.012277
0.0122987
0.0111103
0.0110703
0.0109143
0.0108593
0.0108204
0.0107159