/*--------------------------------*- C++ -*----------------------------------*\
| =========                 |                                                 |
| \\      /  F ield         | OpenFOAM: The Open Source CFD Toolbox           |
|  \\    /   O peration     | Version:  v2106                                 |
|   \\  /    A nd           | Website:  www.openfoam.com                      |
|    \\/     M anipulation  |                                                 |
\*---------------------------------------------------------------------------*/
FoamFile
{
    version     2.0;
    format      ascii;
    arch        "LSB;label=32;scalar=64";
    class       volScalarField;
    location    "0";
    object      expGpCoeffs42;
}
// * * * * * * * * * * * * * * * * * * * * * * * * * * * * * * * * * * * * * //

dimensions      [0 0 0 0 0 0 0];

internalField   nonuniform List<scalar> 
8000
(
2.52334e-06
5.95694e-06
2.69082e-05
7.44817e-05
0.000221915
0.000480723
0.000954833
0.00163958
0.00252935
0.00361752
0.00475231
0.00591769
0.0069228
0.00775251
0.00829294
0.00854965
0.00856221
0.00833977
0.00803468
0.00765144
0.00732936
0.00707296
0.00690254
0.00682038
0.00674101
0.00665833
0.00650791
0.00628819
0.00599659
0.00563436
0.00521945
0.00475383
0.00426163
0.00374521
0.00323094
0.00272117
0.00223995
0.00178922
0.00138647
0.00103292
0.000736442
0.00049733
0.000312706
0.000181915
9.23427e-05
4.2588e-05
1.33e-05
2.65716e-06
-1.10871e-05
-2.97584e-05
-7.28045e-05
-0.000141653
-0.00024942
-0.000396844
-0.000588176
-0.000823322
-0.00109709
-0.00140857
-0.00174445
-0.00210324
-0.00246634
-0.00283193
-0.0031798
-0.00350818
-0.00379893
-0.00405063
-0.00425031
-0.0043971
-0.00448508
-0.00451404
-0.00448557
-0.0044001
-0.00426575
-0.00408348
-0.00387134
-0.0036315
-0.00340275
-0.00318744
-0.00301175
-0.00287649
-0.00274933
-0.00262986
-0.00245987
-0.00223803
-0.00194999
-0.00159387
-0.00122492
-0.000846582
-0.00053236
-0.000287441
-0.000126317
-4.69229e-05
1.2689e-05
6.0675e-05
0.000143507
0.000269038
0.000399363
0.000511711
0.000578016
0.000606269
2.24684e-06
5.67971e-06
2.36406e-05
7.1169e-05
0.000208153
0.000466634
0.00093387
0.00161821
0.00251654
0.00360475
0.00475689
0.0059228
0.00694318
0.00777366
0.00831728
0.00857462
0.00857599
0.00835378
0.00803399
0.00765073
0.00732001
0.00706357
0.00689788
0.00681574
0.0067457
0.00666303
0.00651426
0.00629456
0.0060017
0.00563951
0.00522263
0.00475707
0.00426249
0.00374614
0.00322948
0.00271978
0.00223658
0.00178591
0.00138195
0.00102844
0.000731698
0.000492616
0.000308689
0.000177914
8.98114e-05
4.00631e-05
1.26723e-05
2.03078e-06
-9.81354e-06
-2.84825e-05
-7.00359e-05
-0.000138875
-0.000245864
-0.000393269
-0.00058468
-0.000819796
-0.00109446
-0.0014059
-0.0017433
-0.00210205
-0.00246699
-0.00283253
-0.0031822
-0.00351054
-0.00380275
-0.00405441
-0.00425498
-0.00440175
-0.00448992
-0.00451889
-0.00448995
-0.0044045
-0.00426917
-0.00408692
-0.00387255
-0.00363274
-0.00339953
-0.00318425
-0.00300844
-0.00287322
-0.00275128
-0.00263179
-0.0024661
-0.00224411
-0.00195442
-0.00159812
-0.00122192
-0.000843549
-0.00052413
-0.000279356
-0.000120834
-4.15757e-05
9.86639e-06
5.79646e-05
0.000140117
0.000265778
0.000403924
0.000516209
0.000580297
0.000608544
1.94827e-06
5.38035e-06
2.01121e-05
6.75918e-05
0.000193292
0.00045142
0.000911233
0.00159514
0.0025027
0.00359095
0.00476185
0.00592831
0.00696518
0.0077965
0.00834356
0.00860159
0.00859087
0.00836891
0.00803324
0.00764998
0.00730992
0.00705343
0.00689286
0.00681072
0.00675076
0.0066681
0.00652111
0.00630145
0.00600721
0.00564508
0.00522606
0.00476056
0.00426342
0.00374713
0.00322791
0.00271827
0.00223295
0.00178234
0.00137706
0.0010236
0.000726575
0.000487526
0.00030435
0.000173594
8.70781e-05
3.73366e-05
1.19944e-05
1.35439e-06
-8.43834e-06
-2.71047e-05
-6.70462e-05
-0.000135876
-0.000242024
-0.000389408
-0.000580905
-0.000815988
-0.00109162
-0.00140302
-0.00174207
-0.00210076
-0.00246768
-0.00283317
-0.0031848
-0.00351309
-0.00380687
-0.0040585
-0.00426002
-0.00440677
-0.00449516
-0.00452412
-0.00449468
-0.00440924
-0.00427285
-0.00409063
-0.00387385
-0.00363407
-0.00339605
-0.0031808
-0.00300487
-0.00286969
-0.00275339
-0.00263387
-0.00247283
-0.00225068
-0.0019592
-0.0016027
-0.00121868
-0.000840274
-0.000515243
-0.000270625
-0.000114914
-3.58017e-05
6.81838e-06
5.50378e-05
0.000136456
0.000262257
0.000408849
0.000521066
0.00058276
0.000611001
1.62587e-06
5.05708e-06
1.63018e-05
6.3729e-05
0.000177245
0.000434991
0.000886789
0.00157022
0.00248776
0.00357605
0.0047672
0.00593427
0.00698895
0.00782116
0.00837194
0.00863071
0.00860693
0.00838525
0.00803243
0.00764916
0.00729903
0.00704249
0.00688744
0.0068053
0.00675623
0.00667358
0.00652852
0.00630889
0.00601317
0.00565109
0.00522977
0.00476434
0.00426442
0.00374821
0.00322621
0.00271665
0.00222902
0.00177848
0.00137178
0.00101838
0.000721042
0.000482029
0.000299666
0.000168929
8.41265e-05
3.43924e-05
1.12624e-05
6.23996e-07
-6.95334e-06
-2.56169e-05
-6.38178e-05
-0.000132638
-0.000237877
-0.000385239
-0.000576828
-0.000811877
-0.00108856
-0.00139991
-0.00174073
-0.00209937
-0.00246843
-0.00283387
-0.0031876
-0.00351584
-0.00381133
-0.00406292
-0.00426547
-0.00441219
-0.00450081
-0.00452977
-0.00449979
-0.00441436
-0.00427683
-0.00409463
-0.00387526
-0.00363551
-0.00339229
-0.00317708
-0.00300102
-0.00286587
-0.00275568
-0.00263612
-0.00248009
-0.00225777
-0.00196436
-0.00160764
-0.00121518
-0.000836737
-0.000505646
-0.000261197
-0.000108521
-2.95667e-05
3.52701e-06
5.18773e-05
0.000132503
0.000258455
0.000414168
0.000526311
0.00058542
0.000613654
1.27772e-06
4.708e-06
1.21874e-05
5.98056e-05
0.000159917
0.00041725
0.000860393
0.00154331
0.00247163
0.00355997
0.00477298
0.0059407
0.0070146
0.00784779
0.00840259
0.00866215
0.00862428
0.00840289
0.00803156
0.00764827
0.00728726
0.00703067
0.00688158
0.00679945
0.00676213
0.00667949
0.00653651
0.00631691
0.00601961
0.00565759
0.00523377
0.00476841
0.0042655
0.00374937
0.00322437
0.00271489
0.00222479
0.00177432
0.00136609
0.00101274
0.000715068
0.000476094
0.000294607
0.000163892
8.09392e-05
3.12132e-05
1.0472e-05
-1.64714e-07
-5.34978e-06
-2.40103e-05
-6.03316e-05
-0.00012914
-0.000233399
-0.000380738
-0.000572426
-0.000807437
-0.00108525
-0.00139655
-0.00173929
-0.00209787
-0.00246924
-0.00283462
-0.00319063
-0.00351881
-0.00381614
-0.00406769
-0.00427134
-0.00441805
-0.00450691
-0.00453586
-0.00450531
-0.00441989
-0.00428112
-0.00409896
-0.00387678
-0.00363707
-0.00338824
-0.00317306
-0.00299685
-0.00286176
-0.00275814
-0.00263855
-0.00248793
-0.00226543
-0.00196994
-0.00161298
-0.0012114
-0.000832918
-0.000495283
-0.000251017
-0.000101618
-2.28338e-05
-2.71475e-08
4.84645e-05
0.000128234
0.00025435
0.000421328
0.000531975
0.000588293
0.000616519
9.32708e-07
4.33759e-06
1.11255e-05
5.70982e-05
0.000147096
0.000402402
0.000833652
0.00151347
0.00245396
0.00354085
0.00477713
0.00594304
0.00703818
0.00787105
0.00843476
0.00869588
0.00864301
0.00842194
0.00803062
0.00764732
0.00727455
0.0070179
0.00687525
0.00679313
0.00677894
0.00669603
0.00655506
0.00633468
0.00603584
0.00567262
0.0052464
0.00477956
0.00427375
0.00375601
0.00322811
0.00271706
0.00222456
0.00177272
0.00136301
0.00100859
0.000710603
0.000470921
0.000290284
0.000159189
7.80265e-05
2.81637e-05
9.73238e-06
-9.33274e-07
-3.80532e-06
-2.25323e-05
-5.70352e-05
-0.000126078
-0.000229386
-0.000377202
-0.000568984
-0.000804731
-0.00108364
-0.00139589
-0.00174047
-0.00210011
-0.00247371
-0.00284015
-0.00319834
-0.00352744
-0.00382654
-0.00407873
-0.00428346
-0.00443049
-0.0045196
-0.00454854
-0.00451742
-0.00443168
-0.00429172
-0.00410898
-0.0038841
-0.00364362
-0.00338386
-0.00316873
-0.00299236
-0.00285731
-0.0027608
-0.00264118
-0.0024964
-0.0022737
-0.00197563
-0.00161837
-0.00120602
-0.000828367
-0.000484086
-0.000240294
-9.437e-05
-1.5646e-05
-2.17359e-06
4.62518e-05
0.00013318
0.000257761
0.000437811
0.000548308
0.000596705
0.000624444
6.26073e-07
3.95082e-06
1.07356e-05
5.41746e-05
0.000144127
0.00038824
0.000819281
0.00147905
0.00241901
0.00349035
0.00472579
0.00589656
0.00699095
0.00785373
0.00841725
0.0087228
0.0086702
0.00848552
0.00809358
0.00772617
0.0073558
0.00710352
0.00697282
0.00689458
0.00689366
0.00680775
0.00666681
0.00643801
0.00613922
0.00576306
0.00533692
0.00485396
0.00434825
0.00381295
0.00328515
0.00275699
0.00226458
0.00179777
0.00138814
0.00102211
0.000724179
0.000476758
0.000296155
0.000160926
7.9779e-05
2.8415e-05
9.98722e-06
-9.94293e-07
-3.8658e-06
-2.33157e-05
-5.78121e-05
-0.000129366
-0.000232654
-0.000385639
-0.000577386
-0.000821143
-0.0011
-0.00142259
-0.0017671
-0.00213832
-0.00251185
-0.00288973
-0.00324785
-0.00358681
-0.00388585
-0.00414517
-0.00434986
-0.00450056
-0.00458965
-0.00461855
-0.00458744
-0.00449825
-0.00435831
-0.00416935
-0.00394451
-0.00369569
-0.00342976
-0.00320476
-0.00302428
-0.00287939
-0.00278296
-0.00264926
-0.00250495
-0.00226629
-0.0019676
-0.00160243
-0.00119031
-0.000816031
-0.000471921
-0.000235956
-9.00812e-05
-1.32097e-05
1.92934e-07
5.59875e-05
0.000142661
0.000275911
0.00045561
0.000568233
0.000616517
0.000643304
2.94957e-07
3.53317e-06
1.03146e-05
5.10176e-05
0.00014092
0.000372947
0.000803762
0.00144189
0.00238126
0.00343582
0.00467036
0.00584637
0.00693995
0.00783504
0.00839833
0.00875187
0.00869989
0.00855965
0.00816893
0.00783055
0.00746132
0.00722297
0.00709279
0.00701846
0.00701754
0.0069284
0.00678749
0.00654959
0.00625086
0.00586073
0.00543467
0.0049343
0.00442869
0.00387444
0.00334675
0.00280011
0.0023078
0.00182482
0.00141528
0.00103671
0.000738838
0.000483061
0.000302495
0.000162802
8.16714e-05
2.86865e-05
1.02624e-05
-1.06018e-06
-3.93111e-06
-2.41616e-05
-5.8651e-05
-0.000132916
-0.000236183
-0.00039475
-0.000586457
-0.000838865
-0.00111766
-0.00145141
-0.00179586
-0.00217958
-0.00255304
-0.00294326
-0.00330131
-0.00365092
-0.00394991
-0.00421693
-0.00442158
-0.00457622
-0.00466529
-0.00469416
-0.00466305
-0.00457012
-0.00443022
-0.00423455
-0.00400975
-0.00375191
-0.00348604
-0.00324937
-0.00306874
-0.00290826
-0.00281154
-0.00265858
-0.00251411
-0.00225753
-0.00195894
-0.00158522
-0.00117335
-0.000802711
-0.000458785
-0.000231271
-8.54499e-05
-1.0579e-05
2.74841e-06
6.65006e-05
0.000152899
0.00029551
0.00047483
0.000589749
0.000637911
0.00066367
-6.25968e-08
3.08217e-06
9.85999e-06
4.76085e-05
0.000137457
0.000356434
0.000787004
0.00140176
0.00234051
0.00337694
0.0046105
0.00579217
0.00688487
0.00781485
0.0083779
0.00878326
0.00873195
0.00863971
0.00825029
0.00794326
0.00757528
0.00735197
0.00722235
0.00715222
0.00715131
0.00705869
0.0069178
0.00667007
0.00637141
0.00596619
0.00554023
0.00502106
0.00451556
0.00394083
0.00341326
0.00284667
0.00235447
0.00185404
0.00144458
0.00105248
0.000754668
0.000489868
0.000309341
0.000164828
8.37149e-05
2.89796e-05
1.05596e-05
-1.13134e-06
-4.00163e-06
-2.50751e-05
-5.95569e-05
-0.00013675
-0.000239995
-0.000404588
-0.000596254
-0.000858002
-0.00113674
-0.00148254
-0.00182691
-0.00222414
-0.00259752
-0.00300106
-0.00335904
-0.00372015
-0.00401907
-0.00429441
-0.00449901
-0.00465792
-0.00474697
-0.0047758
-0.0047447
-0.00464774
-0.00450787
-0.00430494
-0.00408019
-0.00381263
-0.00354681
-0.00329754
-0.00311675
-0.00293944
-0.0028424
-0.00266865
-0.00252399
-0.00224807
-0.00194958
-0.00156664
-0.00115503
-0.000788327
-0.000444599
-0.000226213
-8.0449e-05
-7.73817e-06
5.50792e-06
7.7853e-05
0.000163954
0.000316673
0.000495585
0.000612983
0.000661012
0.000685661
-4.48698e-07
2.59517e-06
9.36906e-06
4.39273e-05
0.000133718
0.000338602
0.000768909
0.00135843
0.0022965
0.00331336
0.00454586
0.00573365
0.0068254
0.00779305
0.00835584
0.00881715
0.00876657
0.00872615
0.00833814
0.00806498
0.00769832
0.00749126
0.00736225
0.00729666
0.00729576
0.00719937
0.00705852
0.00680018
0.00650158
0.00608007
0.00565421
0.00511474
0.00460936
0.00401253
0.00348508
0.00289694
0.00240486
0.00188558
0.00147622
0.0010695
0.000771761
0.000497218
0.000316733
0.000167015
8.59216e-05
2.92961e-05
1.08804e-05
-1.20817e-06
-4.07778e-06
-2.60615e-05
-6.05351e-05
-0.000140889
-0.00024411
-0.000415212
-0.000606832
-0.000878667
-0.00115734
-0.00151615
-0.00186044
-0.00227225
-0.00264554
-0.00306348
-0.00342137
-0.00379491
-0.00409376
-0.00437808
-0.00458263
-0.00474615
-0.00483518
-0.00486396
-0.00483287
-0.00473156
-0.00459172
-0.00438096
-0.00415626
-0.00387819
-0.00361244
-0.00334956
-0.00316859
-0.00297311
-0.00287572
-0.00267952
-0.00253466
-0.00223785
-0.00193947
-0.00154658
-0.00113524
-0.000772794
-0.000429282
-0.00022075
-7.50487e-05
-4.67055e-06
8.48775e-06
9.01119e-05
0.000175892
0.000339526
0.000517996
0.000638072
0.000685958
0.000709409
-8.65625e-07
2.06928e-06
8.83893e-06
3.99521e-05
0.00012968
0.000319346
0.000749369
0.00131164
0.00224898
0.0032447
0.00447606
0.00567045
0.00676118
0.0077695
0.00833202
0.00885376
0.00880396
0.0088195
0.00843301
0.0081964
0.0078312
0.00764167
0.00751332
0.00745264
0.00745174
0.00735128
0.00721047
0.00694067
0.00664215
0.00620304
0.00577729
0.00521591
0.00471066
0.00408996
0.00356264
0.00295124
0.00245928
0.00191965
0.00151039
0.00108788
0.000790219
0.000505154
0.000324716
0.000169377
8.83045e-05
2.96379e-05
1.12269e-05
-1.29114e-06
-4.16002e-06
-2.71266e-05
-6.15915e-05
-0.00014536
-0.000248554
-0.000426684
-0.000618255
-0.000900982
-0.00117958
-0.00155245
-0.00189665
-0.00232421
-0.0026974
-0.00313089
-0.00348868
-0.00387564
-0.00417441
-0.00446843
-0.00467293
-0.00484142
-0.00493042
-0.00495916
-0.00492808
-0.00482207
-0.00468226
-0.00446304
-0.0042384
-0.00394899
-0.0036833
-0.00340573
-0.00322457
-0.00300947
-0.00291171
-0.00269126
-0.00254619
-0.00222682
-0.00192856
-0.00152491
-0.00111388
-0.000756022
-0.000412741
-0.000214852
-6.92172e-05
-1.358e-06
1.17055e-05
0.00010335
0.000188783
0.000364204
0.000542197
0.000665164
0.000712896
0.000735053
-1.31584e-06
1.5014e-06
8.26648e-06
3.56596e-05
0.00012532
0.000298553
0.000728268
0.00126111
0.00219766
0.00317056
0.00440069
0.0056022
0.00669183
0.00774408
0.0083063
0.00889328
0.00884432
0.0089203
0.00853546
0.00833833
0.00797468
0.0078041
0.00767645
0.00762107
0.00762018
0.00751533
0.00737456
0.00709238
0.00679394
0.00633583
0.0059102
0.00532515
0.00482004
0.00417356
0.00364639
0.00300986
0.00251804
0.00195643
0.00154729
0.00110773
0.000810151
0.000513725
0.000333336
0.000171928
9.08776e-05
3.0007e-05
1.16011e-05
-1.38073e-06
-4.24882e-06
-2.82768e-05
-6.27321e-05
-0.000150187
-0.000253353
-0.000439071
-0.00063059
-0.000925078
-0.0012036
-0.00159165
-0.00193575
-0.00238031
-0.0027534
-0.00320368
-0.00356137
-0.00396282
-0.00426151
-0.00456599
-0.00477043
-0.0049443
-0.00503328
-0.00506196
-0.00503088
-0.0049198
-0.00478003
-0.00455168
-0.00432711
-0.00402544
-0.00375982
-0.00346638
-0.00328502
-0.00304873
-0.00295056
-0.00270394
-0.00255863
-0.00221491
-0.00191678
-0.00150151
-0.00109082
-0.00073791
-0.00039488
-0.000208482
-6.29202e-05
2.21902e-06
1.51802e-05
0.000117644
0.000202704
0.000390852
0.000568331
0.000694419
0.000741985
0.000762744
-1.78635e-06
9.65001e-07
1.04629e-05
3.63198e-05
0.000127397
0.00028978
0.000702782
0.00121583
0.0021255
0.00308183
0.00428979
0.00549781
0.00658958
0.00767519
0.00827434
0.00890961
0.00890582
0.00903292
0.00867473
0.00851951
0.0081639
0.00801697
0.0078972
0.00784574
0.00786138
0.0077535
0.0076049
0.00731417
0.00700473
0.00653349
0.00609311
0.00549171
0.00496958
0.0043053
0.00376056
0.00310668
0.0025984
0.00202162
0.00159849
0.00114716
0.000838887
0.000534609
0.000346946
0.000181348
9.58947e-05
3.35017e-05
1.24906e-05
-8.11334e-07
-5.84859e-06
-3.06105e-05
-6.8136e-05
-0.000158136
-0.000266285
-0.000457246
-0.000656134
-0.000958748
-0.00124687
-0.0016454
-0.0020006
-0.00245691
-0.00284145
-0.0033033
-0.00367151
-0.00408296
-0.00439001
-0.00470173
-0.00491152
-0.00508908
-0.00517993
-0.00520858
-0.00517591
-0.00506132
-0.00491691
-0.00468226
-0.00445132
-0.00414119
-0.00385914
-0.00355274
-0.00336093
-0.00310384
-0.00299492
-0.0027246
-0.00256461
-0.00220194
-0.00189291
-0.00146925
-0.00106154
-0.000711769
-0.000379421
-0.000201426
-5.88649e-05
4.16153e-06
2.69561e-05
0.000137543
0.000236137
0.000435246
0.000612662
0.000742439
0.00078539
0.000805536
-2.27723e-06
4.72703e-07
1.29943e-05
3.88836e-05
0.000132607
0.000295254
0.000671878
0.00118445
0.00201167
0.00296543
0.00411168
0.00531575
0.006429
0.00751128
0.00822997
0.00886459
0.00903547
0.00916509
0.00896001
0.00880861
0.00854248
0.00839832
0.00829471
0.00824376
0.00823678
0.00812893
0.00795665
0.00766601
0.00732319
0.0068521
0.00636696
0.00576575
0.00519198
0.00452791
0.00392983
0.00327616
0.00271794
0.00214134
0.00167579
0.0012246
0.000883885
0.000579706
0.000369979
0.000204434
0.000105649
4.3276e-05
1.4392e-05
1.09428e-06
-1.04912e-05
-3.52452e-05
-8.20524e-05
-0.000172024
-0.000295269
-0.000486168
-0.00070741
-0.00100993
-0.00132719
-0.00172558
-0.00211447
-0.00257063
-0.00298994
-0.00345165
-0.00385177
-0.00426308
-0.00459555
-0.00490717
-0.00513321
-0.00531071
-0.00540727
-0.00543591
-0.00539843
-0.00528388
-0.00512537
-0.00489079
-0.00464053
-0.0043305
-0.00402699
-0.00372048
-0.0034859
-0.00322797
-0.00305083
-0.00277978
-0.00255008
-0.00218757
-0.00184062
-0.00141791
-0.0010205
-0.00067151
-0.000371375
-0.000193454
-6.10113e-05
2.14125e-06
5.48215e-05
0.000164625
0.000292341
0.000490006
0.000666166
0.000795224
0.000845838
0.000865911
-2.88296e-06
-1.34439e-07
1.24125e-05
3.83596e-05
0.000130175
0.000293282
0.000638506
0.00115057
0.00188875
0.00283973
0.00391935
0.00511915
0.0062556
0.00733428
0.00818207
0.00881598
0.00917547
0.00930782
0.00926807
0.00912079
0.00895129
0.00881012
0.00872395
0.00867357
0.00864215
0.00853434
0.00833648
0.00804594
0.00766707
0.00719614
0.00666267
0.00606167
0.00543212
0.00476829
0.00411262
0.00345917
0.00284702
0.00227062
0.00175926
0.00130823
0.000932477
0.000628403
0.000394851
0.000229363
0.000116182
5.38308e-05
1.64451e-05
3.15205e-06
-1.55045e-05
-4.02498e-05
-9.708e-05
-0.00018702
-0.000326568
-0.0005174
-0.000762779
-0.00106519
-0.00141391
-0.00181217
-0.00223743
-0.00269344
-0.00315029
-0.00361184
-0.00404641
-0.00445759
-0.00481751
-0.00512902
-0.0053726
-0.00555005
-0.00565276
-0.00568139
-0.00563872
-0.0055242
-0.00535048
-0.00511598
-0.00484484
-0.00453493
-0.00420825
-0.00390161
-0.00362084
-0.00336201
-0.0031112
-0.00283935
-0.0025344
-0.00217205
-0.00178417
-0.00136247
-0.000976187
-0.000628037
-0.000362687
-0.000184845
-6.33291e-05
-4.03348e-08
8.49117e-05
0.000193869
0.000351783
0.000547861
0.000738147
0.000866529
0.000911666
0.000931661
-4.7542e-06
-2.00877e-06
5.74924e-06
3.16048e-05
8.1359e-05
0.000243189
0.000492962
0.00100102
0.00166391
0.0026089
0.00368905
0.00488358
0.00613671
0.00721327
0.00824829
0.00888436
0.00941582
0.00955304
0.00962437
0.00948193
0.00936789
0.00922973
0.00917776
0.00912797
0.00911756
0.00900979
0.00879212
0.00850169
0.00807496
0.00760421
0.00700472
0.00640395
0.0056976
0.00503402
0.00429961
0.00364642
0.00296242
0.00238624
0.00181714
0.00136628
0.000951152
0.000647193
0.000393158
0.000227732
0.000109687
4.73595e-05
1.44462e-05
1.15809e-06
-1.15465e-05
-3.62826e-05
-9.33337e-05
-0.00018324
-0.000334941
-0.000525702
-0.000797826
-0.00110012
-0.00148929
-0.0018874
-0.0023627
-0.00281853
-0.00332876
-0.00379013
-0.00427436
-0.00468537
-0.00508478
-0.00539617
-0.00566441
-0.00584179
-0.00595212
-0.00598073
-0.00592893
-0.00581446
-0.00561737
-0.00538295
-0.0050761
-0.0047663
-0.0043935
-0.00408675
-0.00375806
-0.00349833
-0.00318969
-0.00291677
-0.00253981
-0.00217716
-0.00172331
-0.0013027
-0.000892395
-0.000546061
-0.000310835
-0.000134257
-5.62149e-05
6.9194e-06
8.61795e-05
0.000195177
0.000408386
0.000603031
0.000842584
0.000969571
0.000991678
0.00101158
-6.88625e-06
-4.15445e-06
-1.54858e-06
2.35402e-05
2.97889e-05
0.000191631
0.000335003
0.000838502
0.00141268
0.00235108
0.00343863
0.00462745
0.00601258
0.00708696
0.00833167
0.00897016
0.00968974
0.00983226
0.010014
0.00987681
0.00981193
0.00967703
0.00966599
0.00961684
0.00963296
0.00952523
0.00928658
0.00899627
0.00851738
0.00804682
0.00737529
0.00677477
0.0059846
0.00532129
0.00450098
0.00384805
0.00308575
0.0025098
0.0018779
0.00142722
0.000969502
0.000665666
0.000389795
0.000224436
0.000101714
3.94113e-05
1.20611e-05
-1.22163e-06
-6.7689e-06
-3.14949e-05
-8.82149e-05
-0.000178084
-0.000342617
-0.0005333
-0.00083434
-0.00113652
-0.0015697
-0.00196765
-0.00249757
-0.00295322
-0.00352177
-0.00398295
-0.00452145
-0.0049323
-0.00537486
-0.00568613
-0.00598131
-0.00615861
-0.00627721
-0.00630581
-0.00624397
-0.00612955
-0.00590684
-0.00567252
-0.0053264
-0.00501672
-0.00459158
-0.00428471
-0.00390425
-0.00364356
-0.00327715
-0.00300308
-0.00254918
-0.00218621
-0.00165759
-0.00123816
-0.000799696
-0.000455369
-0.000251647
-7.64908e-05
-4.76676e-05
1.52872e-05
8.72619e-05
0.000196368
0.000470679
0.000663677
0.000950161
0.00107766
0.00107829
0.0010979
-1.62576e-05
-1.23924e-05
-9.83207e-06
1.32363e-05
1.92512e-05
0.000149501
0.000282899
0.000714294
0.00127037
0.00212548
0.00320864
0.00436588
0.00575865
0.00689774
0.00816517
0.00895384
0.00970256
0.010019
0.0102207
0.0102179
0.0101635
0.0100999
0.0100947
0.0100653
0.0100756
0.00995521
0.00971503
0.00939176
0.00890901
0.00839066
0.0077138
0.00705549
0.00625913
0.00553414
0.00470749
0.00399542
0.00322734
0.00260048
0.00196396
0.00147451
0.00101367
0.000684653
0.000407198
0.00022896
0.000105924
3.93468e-05
1.24396e-05
-1.75094e-06
-6.74002e-06
-3.45596e-05
-9.12308e-05
-0.000190962
-0.000356423
-0.000566296
-0.000869461
-0.00120017
-0.00163659
-0.00206997
-0.00260392
-0.00309765
-0.00367051
-0.00416739
-0.00470988
-0.00514936
-0.00559509
-0.00592445
-0.00622159
-0.00640475
-0.00652394
-0.00654634
-0.00648374
-0.0063528
-0.0061282
-0.00586987
-0.00552083
-0.00518101
-0.00475681
-0.00441196
-0.00402406
-0.00370895
-0.00333214
-0.002995
-0.00252901
-0.0021215
-0.00158355
-0.0011611
-0.000721744
-0.00040673
-0.000207211
-5.58595e-05
-3.25213e-05
4.30159e-05
0.000116196
0.000266756
0.000544202
0.000771313
0.00105556
0.00118187
0.00118192
0.00119288
-2.63772e-05
-2.1288e-05
-1.87769e-05
2.10987e-06
7.87212e-06
0.000104008
0.000236119
0.000580474
0.00113308
0.00188733
0.00296499
0.00408475
0.00547162
0.00668951
0.00795306
0.00892304
0.00967158
0.0101983
0.0104029
0.0105653
0.0105145
0.010541
0.0105376
0.0105338
0.0105441
0.0104089
0.0101688
0.00980722
0.0093247
0.00875071
0.00807418
0.00734859
0.00655261
0.00575583
0.00492957
0.00414866
0.00338095
0.00269482
0.0020586
0.00152403
0.0010634
0.000705077
0.000427752
0.000234522
0.000111544
3.99903e-05
1.30959e-05
-2.15157e-06
-7.13829e-06
-3.85594e-05
-9.52037e-05
-0.000206411
-0.000371794
-0.000604003
-0.000907024
-0.00127094
-0.00170716
-0.00218178
-0.00271548
-0.00325353
-0.00382612
-0.00436455
-0.0049068
-0.00537959
-0.00582511
-0.00617553
-0.00647253
-0.00666249
-0.00678163
-0.00679681
-0.00673423
-0.00658409
-0.00635959
-0.0060733
-0.00572443
-0.00534952
-0.00492551
-0.00453181
-0.00414361
-0.00375908
-0.00338186
-0.00296693
-0.0025013
-0.00203983
-0.00150323
-0.00107696
-0.000639193
-0.000359462
-0.000160943
-3.84288e-05
-1.55537e-05
7.53344e-05
0.000147606
0.000348298
0.000623594
0.000887544
0.00116938
0.0012944
0.00129382
0.00129545
-3.73048e-05
-3.08939e-05
-2.84359e-05
-9.90497e-06
-4.41546e-06
5.48831e-05
0.000185605
0.000435969
0.000984839
0.00163017
0.00270188
0.00378117
0.00516168
0.00646465
0.00772402
0.00888978
0.00963813
0.010392
0.0105997
0.0109405
0.0108935
0.0110173
0.0110158
0.0110396
0.0110499
0.0108988
0.0106589
0.0102559
0.00977358
0.00913951
0.00846332
0.00766509
0.00686952
0.00599521
0.00516937
0.00431414
0.00354681
0.00279669
0.00216079
0.00157749
0.0011171
0.000727131
0.000449948
0.000240529
0.000117614
4.06852e-05
1.38046e-05
-2.58419e-06
-7.56835e-06
-4.28786e-05
-9.94939e-05
-0.000223095
-0.000388393
-0.000644721
-0.000947587
-0.00134737
-0.00178336
-0.00230251
-0.00283594
-0.00342186
-0.00399415
-0.00457746
-0.00511943
-0.00562821
-0.0060735
-0.00644665
-0.0067435
-0.00694082
-0.00705989
-0.00706727
-0.00700473
-0.00683383
-0.00660945
-0.00629298
-0.00594429
-0.00553148
-0.00510768
-0.00466122
-0.00427269
-0.00381322
-0.00343555
-0.00293661
-0.00247139
-0.00195164
-0.00141649
-0.000986104
-0.000550052
-0.000308419
-0.000110981
-1.96064e-05
2.76865e-06
0.000110233
0.000181523
0.00043635
0.000709325
0.00101305
0.00129229
0.00141592
0.00141466
0.0014062
-5.44854e-05
-4.7643e-05
-4.17445e-05
-2.34651e-05
-2.33257e-06
4.34064e-05
0.000172505
0.000383658
0.000867136
0.0014652
0.0024298
0.00348859
0.00478377
0.00611712
0.00738769
0.00863027
0.00950846
0.0103555
0.0107423
0.0111609
0.0112527
0.011422
0.0114645
0.0115016
0.0114868
0.0113295
0.0110683
0.0106492
0.0101423
0.00948503
0.00877999
0.0079537
0.0071275
0.00622324
0.00536742
0.00448348
0.0036889
0.00291406
0.00225507
0.00165297
0.00117422
0.000772032
0.000480877
0.000265214
0.00013152
5.25211e-05
1.63313e-05
-4.97045e-07
-1.51538e-05
-5.19698e-05
-0.000120082
-0.000248474
-0.000427774
-0.000693422
-0.00101248
-0.00142612
-0.00187926
-0.0024156
-0.00296522
-0.0035696
-0.00415511
-0.00475574
-0.00530625
-0.00582889
-0.00627713
-0.006659
-0.00695318
-0.0071533
-0.00726488
-0.0072692
-0.00719571
-0.00701678
-0.00677955
-0.00645142
-0.00608994
-0.00566249
-0.00523039
-0.00475957
-0.00433376
-0.00384008
-0.00340619
-0.00287158
-0.00237444
-0.0018317
-0.0013164
-0.000885478
-0.000496854
-0.000271449
-9.35546e-05
-1.51977e-05
3.88232e-05
0.000152539
0.000278567
0.000553699
0.000840425
0.00115493
0.0014079
0.00152798
0.00154674
0.00153502
-7.70641e-05
-7.02503e-05
-5.79619e-05
-3.9889e-05
-2.91091e-06
4.29456e-05
0.00014834
0.000359227
0.000723363
0.00131798
0.00210278
0.00315409
0.00433756
0.00566131
0.0069891
0.0082239
0.00933126
0.0101756
0.0108601
0.0112805
0.0116047
0.0117765
0.0119047
0.0119423
0.0119165
0.0117594
0.0114628
0.011044
0.01049
0.0098331
0.00907099
0.00824519
0.00735738
0.00645367
0.00553742
0.00465401
0.00380537
0.003031
0.00232815
0.0017264
0.00121577
0.00081383
0.000502192
0.000286659
0.000141047
6.20954e-05
1.81455e-05
1.32718e-06
-2.18582e-05
-5.86522e-05
-0.000140272
-0.000268586
-0.000468783
-0.000734272
-0.00108161
-0.001495
-0.00198137
-0.0025174
-0.00310104
-0.00370506
-0.00432052
-0.00492079
-0.00549284
-0.00601517
-0.00647373
-0.00685538
-0.00714782
-0.00734782
-0.00744675
-0.00745108
-0.00735662
-0.00717779
-0.00691461
-0.00658667
-0.006198
-0.0057708
-0.00530441
-0.00483377
-0.00433594
-0.00384247
-0.00330958
-0.00277623
-0.00221943
-0.00167927
-0.00118675
-0.000758347
-0.00044561
-0.000221195
-9.20117e-05
-1.35893e-05
7.61687e-05
0.000189009
0.000401432
0.000673105
0.00101385
0.00132407
0.00158152
0.00169971
0.00168729
0.00167542
-0.000106353
-9.95166e-05
-8.20277e-05
-6.25445e-05
-1.6673e-05
2.85257e-05
3.99311e-05
0.000248795
0.000417965
0.00100438
0.00161562
0.00265528
0.00381568
0.00512829
0.0066437
0.00787199
0.00929161
0.0101358
0.0111037
0.0115274
0.0120297
0.0122045
0.0124232
0.0124614
0.0124577
0.0123006
0.0119683
0.0115497
0.0109284
0.0102718
0.00942321
0.00859789
0.00761402
0.00671084
0.00570009
0.00481721
0.00388634
0.00311244
0.00234805
0.00174668
0.00119959
0.000797907
0.000474293
0.000258902
0.000120227
4.1331e-05
1.39004e-05
-2.90658e-06
-1.09032e-05
-4.76802e-05
-0.000125318
-0.000253568
-0.000467451
-0.000732793
-0.00111305
-0.00152619
-0.00206116
-0.00259686
-0.00323723
-0.00384088
-0.00451166
-0.00511153
-0.00572832
-0.00625028
-0.00673613
-0.0071175
-0.0074165
-0.00761632
-0.00770161
-0.00770588
-0.0075813
-0.00740254
-0.00709844
-0.00677068
-0.00633568
-0.00590873
-0.00538951
-0.00491907
-0.0043474
-0.00385408
-0.00322033
-0.00268816
-0.00203832
-0.0015012
-0.000986472
-0.000562095
-0.000321849
-9.98879e-05
-6.78655e-05
1.00299e-05
7.35056e-05
0.000186642
0.000484592
0.000752695
0.00122499
0.00153258
0.00181588
0.00192866
0.00183347
0.00182007
-0.000157866
-0.000148999
-0.000131791
-9.66789e-05
-5.15203e-05
3.02414e-06
1.36376e-05
0.000160676
0.00032307
0.000757101
0.00135933
0.00221913
0.00336886
0.0045865
0.00609402
0.00739178
0.00881512
0.00986858
0.0108459
0.0115057
0.0120163
0.0123438
0.0125605
0.0126421
0.0126191
0.0124486
0.0121166
0.0116711
0.0110501
0.0103639
0.0095159
0.00866116
0.00767797
0.00674834
0.0057383
0.00483419
0.00390397
0.00311546
0.00235161
0.0017425
0.0011958
0.000792225
0.000468837
0.000255208
0.00011663
4.02196e-05
1.28082e-05
-3.74417e-06
-1.17352e-05
-5.26446e-05
-0.000130228
-0.000267657
-0.000481391
-0.000759788
-0.00113978
-0.00156704
-0.00210164
-0.00264875
-0.00328867
-0.00389736
-0.00456767
-0.00516361
-0.00577997
-0.00628833
-0.00677384
-0.00713328
-0.00743207
-0.00760472
-0.00768994
-0.00766585
-0.00754135
-0.0073371
-0.00703321
-0.00668606
-0.00625137
-0.00580882
-0.00529921
-0.00480155
-0.00422965
-0.00368881
-0.00305124
-0.0024878
-0.00183643
-0.00132702
-0.000815317
-0.000465872
-0.000229593
-6.4218e-05
-3.3911e-05
6.25022e-05
0.000124625
0.000321003
0.000617864
0.000964813
0.0014315
0.0017496
0.00202831
0.00210086
0.00200475
0.00196656
-0.000213491
-0.000202431
-0.000185772
-0.000133539
-8.91499e-05
-2.45136e-05
-1.47553e-05
6.55224e-05
0.000225271
0.000490699
0.0010865
0.00174816
0.00288754
0.00400145
0.00549705
0.00687164
0.00828544
0.00956849
0.0105412
0.0114607
0.0119706
0.0124679
0.0126849
0.0128164
0.0127934
0.0126085
0.0122767
0.011802
0.0111816
0.0104634
0.00961599
0.00872948
0.00774703
0.00678884
0.00577956
0.00485252
0.00392301
0.00311873
0.00235544
0.00173799
0.0011917
0.00078609
0.000462945
0.00025122
0.000112746
3.90195e-05
1.16287e-05
-4.64864e-06
-1.26337e-05
-5.80053e-05
-0.00013553
-0.000282871
-0.000496444
-0.000788938
-0.00116864
-0.00161115
-0.00214534
-0.00270478
-0.00334422
-0.00395834
-0.00462815
-0.00521985
-0.00583575
-0.00632942
-0.00681456
-0.00715032
-0.00744888
-0.00759218
-0.00767735
-0.00762262
-0.00749822
-0.00726643
-0.00696277
-0.00659469
-0.00616032
-0.00570092
-0.0051917
-0.0046628
-0.00409188
-0.00349859
-0.00286322
-0.00226611
-0.00161808
-0.00113958
-0.000631211
-0.000364194
-0.00012997
-2.66423e-05
2.75449e-06
0.000119557
0.000180195
0.000468814
0.000761777
0.00119387
0.00165451