/*--------------------------------*- C++ -*----------------------------------*\
| =========                 |                                                 |
| \\      /  F ield         | OpenFOAM: The Open Source CFD Toolbox           |
|  \\    /   O peration     | Version:  v2106                                 |
|   \\  /    A nd           | Website:  www.openfoam.com                      |
|    \\/     M anipulation  |                                                 |
\*---------------------------------------------------------------------------*/
FoamFile
{
    version     2.0;
    format      ascii;
    arch        "LSB;label=32;scalar=64";
    class       volScalarField;
    location    "0";
    object      expGpCoeffs35;
}
// * * * * * * * * * * * * * * * * * * * * * * * * * * * * * * * * * * * * * //

dimensions      [0 0 0 0 0 0 0];

internalField   nonuniform List<scalar> 
8000
(
0.00447439
0.00474648
0.00512732
0.00553133
0.00578344
0.00590729
0.00592097
0.00584857
0.00573082
0.00557036
0.00537263
0.00513707
0.00485691
0.00453255
0.00418121
0.00380361
0.00344547
0.00310654
0.00283109
0.0026203
0.00249665
0.0024621
0.00250789
0.00263476
0.00280379
0.00301441
0.00323573
0.00346658
0.00369955
0.00393442
0.00416944
0.00440441
0.00463772
0.00486918
0.00509732
0.00532194
0.00554164
0.00575622
0.00596419
0.00616537
0.00635807
0.00654209
0.00671551
0.00687812
0.0070278
0.00716434
0.00728559
0.00739135
0.00747966
0.00755038
0.00760204
0.00763455
0.00764718
0.00763991
0.0076129
0.0075662
0.00750082
0.00741689
0.00731613
0.00719873
0.00706685
0.00692072
0.00676269
0.00659299
0.00641392
0.00622571
0.00603045
0.00582836
0.00562129
0.00540941
0.00519436
0.00497631
0.00475671
0.00453573
0.00432117
0.00411427
0.00395024
0.00383
0.00379893
0.0038561
0.00401429
0.00427124
0.00461213
0.00503608
0.00551296
0.00604514
0.00659588
0.00716695
0.00773794
0.00830733
0.00886434
0.00940701
0.00988404
0.0102912
0.0105171
0.0105166
0.0102478
0.00966259
0.00907446
0.00863663
0.00445247
0.00472451
0.00513839
0.00554254
0.00579439
0.0059186
0.00592553
0.00585325
0.00573347
0.00557303
0.00537631
0.00514077
0.00486076
0.0045364
0.00418214
0.00380446
0.00344192
0.00310287
0.00282464
0.00261377
0.00248903
0.00245442
0.00250253
0.00262938
0.00280241
0.00301301
0.0032355
0.00346632
0.00369949
0.00393433
0.00416953
0.00440447
0.00463795
0.00486938
0.00509767
0.00532227
0.00554212
0.00575668
0.00596482
0.00616597
0.00635885
0.00654285
0.00671647
0.00687906
0.00702896
0.00716548
0.00728694
0.00739268
0.00748116
0.00755186
0.00760363
0.00763613
0.0076488
0.00764153
0.00761446
0.00756777
0.00750225
0.00741834
0.00731739
0.0072
0.0070679
0.00692179
0.00676352
0.00659385
0.00641456
0.00622637
0.00603091
0.00582885
0.00562159
0.00540975
0.00519453
0.00497651
0.00475675
0.0045358
0.00431996
0.00411309
0.00394443
0.0038242
0.00379039
0.00384762
0.00400673
0.00426377
0.00460639
0.00503051
0.00551034
0.0060427
0.00659591
0.00716714
0.00773869
0.00830824
0.00886645
0.00940927
0.00989364
0.0103006
0.0105411
0.0105399
0.0102711
0.00968561
0.00903911
0.00860137
0.00442881
0.00470079
0.00515034
0.00555464
0.00580621
0.0059308
0.00593045
0.0058583
0.00573633
0.00557592
0.00538028
0.00514477
0.00486492
0.00454057
0.00418313
0.00380538
0.00343809
0.00309892
0.00281768
0.00260671
0.00248079
0.00244613
0.00249674
0.00262356
0.00280093
0.00301149
0.00323525
0.00346604
0.00369941
0.00393422
0.00416963
0.00440453
0.00463819
0.00486959
0.00509805
0.00532262
0.00554264
0.00575717
0.00596549
0.00616661
0.0063597
0.00654367
0.00671751
0.00688008
0.00703021
0.00716672
0.00728839
0.00739411
0.00748277
0.00755347
0.00760535
0.00763785
0.00765054
0.00764328
0.00761615
0.00756946
0.0075038
0.0074199
0.00731874
0.00720137
0.00706903
0.00692294
0.00676443
0.00659477
0.00641525
0.00622709
0.00603141
0.00582937
0.00562192
0.0054101
0.00519471
0.00497672
0.00475679
0.00453588
0.00431866
0.00411182
0.00393815
0.00381795
0.00378117
0.00383846
0.00399856
0.00425571
0.00460019
0.00502449
0.00550751
0.00604008
0.00659594
0.00716735
0.0077395
0.00830923
0.00886872
0.00941171
0.009904
0.0103108
0.0105669
0.010565
0.0102963
0.00971046
0.00900093
0.0085633
0.00440327
0.00467517
0.00516325
0.00556771
0.00581898
0.00594398
0.00593576
0.00586375
0.00573943
0.00557903
0.00538457
0.00514908
0.00486941
0.00454506
0.0041842
0.00380637
0.00343396
0.00309465
0.00281016
0.00259909
0.00247189
0.00243717
0.00249049
0.00261728
0.00279932
0.00300986
0.00323498
0.00346574
0.00369934
0.00393411
0.00416973
0.0044046
0.00463845
0.00486982
0.00509847
0.005323
0.00554321
0.0057577
0.00596622
0.00616731
0.00636061
0.00654456
0.00671864
0.00688118
0.00703156
0.00716804
0.00728995
0.00739566
0.00748452
0.0075552
0.00760721
0.0076397
0.00765243
0.00764516
0.00761797
0.00757129
0.00750547
0.00742158
0.0073202
0.00720285
0.00707025
0.00692418
0.0067654
0.00659577
0.00641599
0.00622786
0.00603194
0.00582994
0.00562227
0.00541049
0.0051949
0.00497694
0.00475684
0.00453596
0.00431726
0.00411044
0.00393137
0.00381119
0.00377121
0.00382857
0.00398974
0.00424701
0.0045935
0.00501799
0.00550445
0.00603724
0.00659598
0.00716758
0.00774037
0.0083103
0.00887118
0.00941434
0.00991519
0.0103219
0.0105949
0.0105922
0.0103234
0.0097373
0.00895971
0.00852219
0.00437568
0.00464751
0.00517718
0.00558391
0.00583277
0.00595822
0.0059415
0.00586964
0.00574277
0.0055824
0.0053892
0.00515375
0.00487426
0.00454992
0.00418536
0.00380744
0.00342949
0.00309004
0.00280205
0.00259087
0.00246229
0.0024275
0.00248374
0.0026105
0.00279759
0.00300809
0.00323469
0.00346541
0.00369926
0.00393399
0.00416984
0.00440467
0.00463874
0.00487006
0.00509891
0.00532341
0.00554382
0.00575828
0.005967
0.00616806
0.0063616
0.00654551
0.00671985
0.00688237
0.00703302
0.00716948
0.00729164
0.00739733
0.0074864
0.00755707
0.00760922
0.0076417
0.00765446
0.0076472
0.00761993
0.00757326
0.00750728
0.0074234
0.00732178
0.00720445
0.00707156
0.00692552
0.00676645
0.00659685
0.00641679
0.00622869
0.00603252
0.00583055
0.00562266
0.00541091
0.00519511
0.00497719
0.0047569
0.00453604
0.00431574
0.00410896
0.00392404
0.0038039
0.00376046
0.00381788
0.00398022
0.00423762
0.00458628
0.00501097
0.00550115
0.00603418
0.00659602
0.00716782
0.00774132
0.00831145
0.00887384
0.00941718
0.00992727
0.0103338
0.010625
0.0106215
0.0103563
0.00976628
0.0089152
0.00847779
0.00436346
0.00463686
0.00520078
0.0056143
0.00585364
0.00598721
0.0059511
0.00588481
0.00574696
0.00558828
0.00539566
0.00516259
0.00488195
0.00456089
0.00418758
0.00380995
0.00342467
0.00308506
0.00279328
0.00258198
0.00245191
0.00241706
0.00247645
0.00260318
0.00280323
0.00301467
0.00324269
0.00347441
0.00370848
0.00394425
0.00418031
0.00441618
0.00465045
0.00488279
0.00511183
0.00533731
0.00555791
0.00577329
0.00598222
0.00618413
0.00637787
0.00656256
0.00673713
0.00690025
0.00705114
0.00718809
0.00731048
0.00741647
0.00750576
0.00757651
0.00762878
0.00766126
0.00767403
0.00766655
0.00763923
0.00759214
0.00752601
0.0074416
0.00733978
0.00722174
0.00708859
0.00694181
0.00678244
0.00661199
0.00643168
0.00624262
0.00604622
0.00584328
0.00563518
0.00542242
0.00520644
0.00498751
0.00476703
0.0045452
0.00432335
0.00411564
0.00391614
0.00379602
0.00374885
0.00380635
0.00396994
0.00422747
0.00457847
0.00500339
0.00549947
0.00603237
0.00660545
0.00717268
0.00774935
0.00831569
0.00888108
0.00942144
0.00995723
0.0103531
0.010682
0.010663
0.0104135
0.00981052
0.00890018
0.00845992
0.00438774
0.00466419
0.00522818
0.00564711
0.00588721
0.00602443
0.00598949
0.00592558
0.00578899
0.00563308
0.00544169
0.00521272
0.0049333
0.00461688
0.00424482
0.0038705
0.00348366
0.00314066
0.00285005
0.00263273
0.00250556
0.00246904
0.00253589
0.00266962
0.00287873
0.00310016
0.00332814
0.00357061
0.00380464
0.00405138
0.0042874
0.00453431
0.00476853
0.00501178
0.00524078
0.00547681
0.00569736
0.00592268
0.00613157
0.00634253
0.00653623
0.00672885
0.00690339
0.00707306
0.00722392
0.00736584
0.00748821
0.00759742
0.0076867
0.00775883
0.00781109
0.00784308
0.00785585
0.00784604
0.00781873
0.00776759
0.00770147
0.00761144
0.00750963
0.00738459
0.00725146
0.0070965
0.00693717
0.00675758
0.0065773
0.00637838
0.00618202
0.00596873
0.00576066
0.00553728
0.00532133
0.00509172
0.00487128
0.0046389
0.0044171
0.00419952
0.00398995
0.00386303
0.00380744
0.00386799
0.00402817
0.00429539
0.00464467
0.00507978
0.00557795
0.00611587
0.00668714
0.00725792
0.00783261
0.00840044
0.00896367
0.00950288
0.0100364
0.0104274
0.0107541
0.0107262
0.0104753
0.00986118
0.00895072
0.00850473
0.00441396
0.00469371
0.00525776
0.00568254
0.00592346
0.00606462
0.00603095
0.0059696
0.00583437
0.00568145
0.0054914
0.00526686
0.00498876
0.00467735
0.00430663
0.00393587
0.00355034
0.00320846
0.00291897
0.00270206
0.00257563
0.00254237
0.0026095
0.00275119
0.00296026
0.00319249
0.00342042
0.00367448
0.00390846
0.00416706
0.00440303
0.00466187
0.00489605
0.00515108
0.00538003
0.00562744
0.00584795
0.00608399
0.00629283
0.00651358
0.00670724
0.00690842
0.00708292
0.00725967
0.0074105
0.00755779
0.00768013
0.00779282
0.00788208
0.0079557
0.00800795
0.00803941
0.00805218
0.00803987
0.00801256
0.00795705
0.00789094
0.00779484
0.00769306
0.00756044
0.00742734
0.00726355
0.00710424
0.00691479
0.00673455
0.00652498
0.00632866
0.00610419
0.00589616
0.0056613
0.0054454
0.00520425
0.00498385
0.00474009
0.00451832
0.0042901
0.00408057
0.00394595
0.00389004
0.00394842
0.00410775
0.0043778
0.00472575
0.00516623
0.0056627
0.00620604
0.00677536
0.00734997
0.00792252
0.00849195
0.00905286
0.00959081
0.0101219
0.0105075
0.010832
0.0107944
0.0105421
0.00991589
0.00900529
0.00855311
0.00444227
0.00472559
0.00528971
0.00572081
0.0059626
0.00610802
0.00607572
0.00601714
0.00588338
0.00573369
0.00554507
0.00532531
0.00504864
0.00474264
0.00437338
0.00400647
0.00362236
0.00328169
0.0029934
0.00277692
0.00265131
0.00262154
0.00268899
0.00283927
0.00304831
0.00329218
0.00352007
0.00378665
0.00402058
0.00429198
0.0045279
0.00479962
0.00503374
0.00530149
0.00553039
0.0057901
0.00601056
0.00625818
0.00646698
0.00669829
0.00689191
0.00710233
0.00727679
0.00746118
0.00761198
0.00776506
0.00788737
0.00800383
0.00809307
0.0081683
0.00822054
0.00825142
0.00826418
0.00824917
0.00822186
0.00816163
0.00809554
0.00799289
0.00789112
0.00775034
0.00761727
0.00744393
0.00728466
0.00708455
0.00690435
0.00668329
0.00648701
0.00625046
0.00604248
0.00579523
0.00557938
0.00532576
0.00510541
0.00484935
0.00462763
0.00438791
0.00417842
0.00403549
0.00397922
0.00403528
0.00419367
0.00446679
0.0048133
0.00525958
0.00575421
0.00630341
0.00687062
0.00744937
0.00801961
0.00859077
0.00914917
0.00968577
0.0102142
0.0105941
0.0109161
0.0108681
0.0106141
0.00997497
0.00906422
0.00860536
0.00447283
0.00476001
0.0053242
0.00576212
0.00600487
0.00615489
0.00612406
0.00606847
0.0059363
0.0057901
0.00560303
0.00538844
0.00511331
0.00481314
0.00444545
0.0040827
0.00370012
0.00336075
0.00307376
0.00285775
0.00273302
0.00270704
0.00277483
0.00293439
0.00314338
0.00339984
0.00362767
0.00390778
0.00414165
0.00442688
0.00466274
0.00494836
0.00518243
0.00546392
0.00569276
0.00596574
0.00618615
0.00644627
0.00665502
0.00689774
0.00709131
0.00731172
0.00748614
0.00767878
0.00782954
0.00798888
0.00811117
0.00823168
0.0083209
0.00839786
0.00845009
0.00848036
0.00849312
0.00847518
0.00844788
0.00838255
0.00831648
0.00820674
0.008105
0.00795539
0.00782235
0.00763871
0.00747948
0.00726787
0.00708771
0.00685424
0.00665801
0.00640842
0.00620048
0.00593985
0.00572405
0.00545697
0.00523668
0.00496733
0.00474567
0.00449353
0.00428408
0.00413219
0.00407553
0.00412908
0.00428646
0.00456289
0.00490785
0.00536038
0.00585303
0.00640855
0.00697348
0.0075567
0.00812445
0.00869748
0.00925317
0.00978831
0.0103138
0.0106876
0.0110069
0.0109476
0.0106919
0.0100388
0.00912785
0.00866177
0.00450584
0.00479718
0.00536145
0.00580674
0.00605051
0.00620549
0.00617627
0.00612391
0.00599345
0.00585102
0.00566561
0.0054566
0.00518313
0.00488928
0.00452328
0.00416503
0.00378409
0.00344613
0.00316054
0.00294504
0.00282126
0.00279936
0.00286752
0.0030371
0.00324604
0.00351609
0.00374386
0.00403857
0.00427239
0.00457254
0.00480834
0.00510898
0.00534299
0.00563931
0.0058681
0.00615541
0.00637576
0.00664939
0.00685809
0.00711312
0.00730664
0.00753783
0.0077122
0.00791375
0.00806447
0.00823057
0.00835282
0.00847772
0.00856691
0.00864576
0.00869797
0.00872757
0.00874033
0.00871923
0.00869194
0.00862111
0.00855505
0.00843767
0.00833596
0.00817682
0.00804381
0.00784905
0.00768986
0.00746583
0.00728572
0.00703883
0.00684265
0.00657898
0.0063711
0.00609601
0.00588027
0.00559866
0.00537843
0.00509473
0.00487313
0.00460758
0.00439818
0.0042366
0.00417952
0.00423036
0.00438666
0.00466665
0.00500994
0.00546923
0.00595974
0.00652208
0.00708456
0.0076726
0.00823766
0.00881271
0.00936547
0.00989904
0.0104215
0.0107885
0.0111049
0.0110335
0.0107759
0.0101077
0.00919656
0.0087227
0.00454149
0.00483732
0.00540168
0.00585492
0.0060998
0.00626014
0.00623264
0.00618376
0.00605516
0.0059168
0.00573319
0.00553021
0.00525853
0.00497149
0.00460733
0.00425392
0.00387477
0.00353833
0.00325425
0.00303931
0.00291654
0.00289906
0.00296761
0.00314801
0.0033569
0.00364162
0.00386933
0.00417981
0.00441356
0.00472983
0.00496557
0.00528243
0.00551637
0.0058287
0.00605743
0.00636022
0.00658051
0.00686872
0.00707736
0.00734569
0.00753916
0.00778198
0.00795631
0.00816748
0.00831816
0.00849155
0.00861377
0.0087434
0.00883257
0.00891345
0.00896565
0.00899453
0.00900728
0.00898277
0.00895549
0.00887872
0.00881268
0.00868704
0.00858535
0.00841593
0.00828296
0.00807618
0.00791703
0.00767959
0.00749952
0.00723817
0.00704204
0.00676317
0.00655534
0.00626465
0.00604896
0.00575166
0.00553149
0.00523231
0.00501077
0.00473073
0.00452138
0.00434935
0.00429182
0.00433973
0.00449485
0.0047787
0.00512018
0.00558677
0.00607497
0.00664468
0.0072045
0.00779776
0.00835991
0.00893713
0.00948674
0.0100186
0.0105377
0.0108975
0.0112108
0.0111263
0.0108666
0.010182
0.00927076
0.00878848
0.00462664
0.00492429
0.00546956
0.00592057
0.00617587
0.00633351
0.00631783
0.00626751
0.00614304
0.00600749
0.00583074
0.00563132
0.00536902
0.00508525
0.0047271
0.00437841
0.00399758
0.00366804
0.00337698
0.00316982
0.00304123
0.00303229
0.00310632
0.00329537
0.00352616
0.00382103
0.00405948
0.00438086
0.00462672
0.00495413
0.00520216
0.00553023
0.00577644
0.00609984
0.00634055
0.00665405
0.00688578
0.00718406
0.00740329
0.00768081
0.00788375
0.00813457
0.00831692
0.00853475
0.00869177
0.00887017
0.00899686
0.00912975
0.00922136
0.00930367
0.00935628
0.00938461
0.00939577
0.0093689
0.00933804
0.00925718
0.00918577
0.00905442
0.00894573
0.00876923
0.00862785
0.00841273
0.008244
0.00799728
0.00780665
0.00753532
0.00732792
0.00703853
0.00681899
0.00651752
0.00628992
0.00598177
0.00574973
0.00543984
0.00520782
0.00491778
0.00468539
0.00450502
0.00444231
0.00448235
0.00464587
0.00492443
0.00527886
0.00574409
0.00624364
0.00681723
0.00738027
0.00797997
0.00853611
0.00911651
0.00965788
0.010189
0.0106996
0.0110619
0.011349
0.0112675
0.0109853
0.0103036
0.00942552
0.00893974
0.00476987
0.00506759
0.00554424
0.00599623
0.006268
0.00642841
0.00644029
0.006394
0.00628352
0.0061522
0.00598464
0.00578935
0.00554162
0.00526209
0.00492488
0.0045806
0.00421814
0.00389271
0.0036109
0.00340687
0.0032867
0.00327954
0.00336538
0.0035547
0.00380497
0.00409975
0.00437073
0.004692
0.00497454
0.00530185
0.00558711
0.00591507
0.00619842
0.00652172
0.00679874
0.00711213
0.0073785
0.00767669
0.00792799
0.00820542
0.00843695
0.00868769
0.00889431
0.00911206
0.00928827
0.00946661
0.00960681
0.00973966
0.00983872
0.00992101
0.00997487
0.0100032
0.0100095
0.00998261
0.009941
0.00986017
0.00977254
0.00964123
0.00951141
0.00933496
0.00916815
0.00895309
0.00875531
0.00850867
0.0082861
0.00801485
0.00777337
0.00748406
0.00722908
0.0069277
0.00666403
0.00635599
0.00608799
0.0057782
0.00551446
0.00522451
0.00497488
0.0047942
0.00472291
0.00476093
0.00492335
0.00519823
0.00556151
0.00602157
0.00653092
0.0070983
0.00766987
0.00826273
0.00882618
0.00939919
0.00993825
0.0104614
0.0109431
0.0112979
0.0115244
0.0114379
0.0111207
0.0104372
0.00967712
0.00919121
0.00491635
0.00521415
0.00564757
0.00610046
0.00637735
0.00654055
0.00657253
0.00653059
0.0064352
0.00630845
0.00615084
0.00596
0.005728
0.00545304
0.00513846
0.00479893
0.00445631
0.00413533
0.0038635
0.00366286
0.00355177
0.00354652
0.00364513
0.00383473
0.00410604
0.00440071
0.00470682
0.00502799
0.00535013
0.00567733
0.00600279
0.00633063
0.00665409
0.00697728
0.0072935
0.00760679
0.00791056
0.00820864
0.00849457
0.00877191
0.00903432
0.00928497
0.00951779
0.00973547
0.00993239
0.0101107
0.0102655
0.0103983
0.0105054
0.0105876
0.0106429
0.0106712
0.0106722
0.0106453
0.0105921
0.0105113
0.0104062
0.0102749
0.0101222
0.00994586
0.00975159
0.0095366
0.00930745
0.0090609
0.00880382
0.00853267
0.00825438
0.00796517
0.0076719
0.00737063
0.00706802
0.00676008
0.00645326
0.00614358
0.00584558
0.00555573
0.00528748
0.00510648
0.00502591
0.00506175
0.00522297
0.0054939
0.00586671
0.00632121
0.00684113
0.00740181
0.00798258
0.00856807
0.00913942
0.00970443
0.010241
0.0107556
0.011206
0.0115528
0.0117341
0.0116426
0.0113123
0.0106273
0.00993547
0.00944941
0.00494287
0.00524059
0.00580043
0.00625535
0.00655196
0.00672033
0.00674205
0.00670566
0.0066103
0.00648885
0.00634703
0.00616148
0.0059502
0.00568072
0.00537759
0.00504341
0.00469912
0.00438262
0.00410375
0.00390624
0.00379488
0.00379133
0.00391407
0.00410393
0.00442151
0.00471607
0.00506816
0.0053892
0.00575537
0.00608245
0.00645257
0.00678029
0.00714828
0.00747135
0.00783113
0.0081443
0.00848971
0.00878768
0.00911233
0.00938956
0.00968673
0.00993729
0.0101999
0.0104175
0.0106382
0.0108164
0.0109883
0.0111211
0.0112379
0.0113201
0.0113773
0.0114056
0.0114009
0.0113741
0.0113078
0.011227
0.0111019
0.0109707
0.010792
0.0106157
0.0103901
0.0101752
0.00991058
0.00966412
0.00936821
0.00909716
0.00877767
0.00848858
0.00815264
0.00785148
0.00750562
0.0071978
0.00684796
0.00653839
0.00619469
0.00590496
0.00558933
0.00540802
0.00530355
0.00533746
0.00550399
0.0057713
0.00616561
0.00661474
0.00716423
0.00771795
0.00832418
0.00890159
0.00948582
0.010042
0.0105849
0.0110897
0.0115538
0.0118899
0.0120839
0.0119826
0.0116047
0.0109158
0.0099993
0.00951335
0.0049728
0.00527112
0.00595588
0.00641547
0.00673948
0.00691043
0.0069253
0.00689496
0.00680042
0.0066847
0.00656016
0.00638034
0.00619145
0.00592791
0.00563668
0.00530828
0.00495899
0.00464733
0.00435642
0.0041623
0.00404732
0.0040456
0.00419828
0.00438842
0.00476165
0.00505609
0.00545825
0.00577916
0.00619295
0.00651989
0.0069383
0.00726589
0.00768204
0.00800498
0.00841186
0.0087249
0.00911534
0.00941319
0.00977973
0.0100568
0.0103916
0.0106421
0.0109369
0.0111544
0.011401
0.0115791
0.0117695
0.0119022
0.0120295
0.0121117
0.0121711
0.0121994
0.0121886
0.0121618
0.0120812
0.0120005
0.0118538
0.0117227
0.0115158
0.0113395
0.0110802
0.0108653
0.0105622
0.0103159
0.00997795
0.00970701
0.00934295
0.00905398
0.0086719
0.00837086
0.00797823
0.00767054
0.00727418
0.00696474
0.00657123
0.00628161
0.0059086
0.00572696
0.00559187
0.0056237
0.00579874
0.00606216
0.0064835
0.00692685
0.00751195
0.00805817
0.00869329
0.00926199
0.0098605
0.0104071
0.0109578
0.011452
0.0119299
0.0122543
0.0124521
0.0123472
0.0119038
0.0112068
0.0100714
0.00958441
0.00508752
0.00540066
0.0060859
0.00657362
0.00690134
0.00709414
0.00711552
0.00709924
0.00701063
0.00690797
0.00679091
0.00662855
0.0064475
0.00620564
0.00592119
0.00561319
0.00526819
0.00497074
0.00468256
0.0044998
0.00438818
0.00440675
0.00456953
0.0047985
0.00518615
0.00553394
0.00593983
0.00631747
0.00673479
0.00711948
0.00754148
0.0079267
0.00834642
0.00872559
0.00913597
0.0095025
0.00989627
0.0102435
0.0106131
0.0109342
0.0112718
0.0115597
0.0118569
0.0121043
0.0123527
0.0125525
0.0127442
0.01289
0.0130181
0.0131047
0.0131643
0.0131885
0.0131771
0.0131381
0.0130565
0.012956
0.0128077
0.01265
0.012441
0.012232
0.0119701
0.0117171
0.0114112
0.0111219
0.0107809
0.0104631
0.0100958
0.00975689
0.00937138
0.00901821
0.0086221
0.008261
0.00786119
0.00749803
0.00710081
0.00675985
0.00637082
0.0061534
0.00600715
0.00602777
0.00619943
0.00647117
0.0068909
0.00735075
0.00793452
0.00849537
0.00912618
0.00970188
0.0102923
0.0108357
0.0113768
0.011855
0.0123223
0.0126142
0.0127986
0.0126425
0.0121924
0.01144
0.0103037
0.00979
0.0052114
0.00554055
0.0062263
0.00674439
0.00707613
0.00729252
0.0073203
0.00731983
0.00723825
0.00715029
0.00704015
0.00689761
0.00672352
0.00650635
0.00622901
0.00594473
0.0056066
0.00532731
0.00504492
0.00487918
0.00477153
0.00481911
0.00498349
0.00526185
0.00564933
0.00605922
0.00646492
0.00690858
0.00732571
0.00777761
0.00819941
0.0086517
0.00907122
0.00951584
0.00992602
0.0103548
0.0107484
0.0111531
0.0115225
0.0118948
0.0122322
0.0125636
0.0128607
0.0131428
0.0133912
0.0136162
0.0138078
0.0139688
0.0140969
0.0141886
0.0142481
0.0142675
0.0142562
0.0142029
0.0141214
0.013998
0.0138497
0.0136611
0.0134522
0.0132051
0.0129433
0.0126459
0.01234
0.0120009
0.01166
0.0112878
0.0109206
0.0105237
0.0101383
0.00972449
0.00932857
0.0089053
0.00850568
0.00808001
0.00768297
0.00728226
0.0068934
0.00663054
0.00648242
0.00648536
0.00665226
0.00693097
0.00734335
0.00782227
0.00839652
0.00897628
0.00959614
0.0101823
0.0107609
0.0113024
0.011831
0.0122916
0.0127459
0.0130002
0.0131728
0.0129613
0.012504
0.0116918
0.0105545
0.010012
0.00534517
0.0056916
0.00637792
0.0069288
0.00726487
0.00750674
0.00754144
0.00755803
0.00748405
0.00741196
0.00730929
0.00718817
0.00702157
0.00683106
0.00656142
0.00630274
0.00597203
0.00571234
0.00543621
0.00528884
0.00518549
0.00526439
0.00543051
0.00576218
0.00614949
0.00662644
0.00703192
0.00754689
0.0079638
0.00848828
0.00890986
0.00943458
0.00985389
0.0103692
0.0107791
0.0112751
0.0116685
0.0121353
0.0125046
0.0129321
0.0132693
0.0136477
0.0139446
0.0142643
0.0145126
0.0147648
0.0149564
0.0151338
0.0152618
0.015359
0.0154185
0.0154327
0.0154214
0.0153528
0.0152713
0.0151231
0.0149749
0.0147528
0.014544
0.0142558
0.0139942
0.0136488
0.0133431
0.0129501
0.0126094
0.0121783
0.0118113
0.0113516
0.0109665
0.0104872
0.0100914
0.00960105
0.00920163
0.00870844
0.00831161
0.00784639
0.00745769
0.00714579
0.00699564
0.00697948
0.00714124
0.00742749
0.00783193
0.00833143
0.00889541
0.00949559
0.0101036
0.0107011
0.0112669
0.0118064
0.0123215
0.0127632
0.0132034
0.013417
0.0135769
0.0133056
0.0128405
0.0119636
0.0108253
0.0102517
0.00557749
0.00592902
0.00651594
0.00707669
0.00744314
0.00770022
0.00778037
0.00780866
0.00775965
0.00769921
0.00761031
0.00750285
0.00735301
0.00717821
0.00693672
0.00669397
0.0063985
0.00615356
0.00591017
0.00577781
0.00570568
0.00580411
0.00600112
0.0063575
0.00678533
0.00728827
0.00774559
0.00828819
0.00876288
0.00931549
0.00979503
0.0103478
0.0108239
0.0113666
0.0118306
0.0123527
0.012796
0.0132868
0.0137006
0.0141495
0.0145245
0.0149211
0.0152483
0.0155825
0.015853
0.0161158
0.0163213
0.0165051
0.0166391
0.0167384
0.0167962
0.0168084
0.0167883
0.0167138
0.0166169
0.0164591
0.0162896
0.0160545
0.0158188
0.0155146
0.015221
0.014857
0.0145145
0.0141006
0.0137187
0.0132649
0.0128529
0.0123689
0.0119355
0.0114307
0.0109842
0.0104678
0.010016
0.00949668
0.00905214
0.00856191
0.00813719
0.0078025
0.00763165
0.00760078
0.00775185
0.00803276
0.00843561
0.00893487
0.00949551
0.0100958
0.0106963
0.01129
0.0118438
0.0123736
0.0128619
0.0132864
0.0136679
0.0138559
0.0139215
0.013617
0.0130939
0.0121971
0.0112339
0.0106511
0.00578302
0.0061346
0.00671373
0.00727666
0.00767224
0.00793574
0.00805204
0.0080893
0.00806733
0.00801625
0.00794645
0.00784813
0.0077243
0.00755875
0.0073577
0.00712446
0.00688067
0.00664476
0.00645488
0.00632974
0.00631441
0.00641713
0.00667102
0.00702802
0.00752444
0.00802708
0.00857702
0.0091193
0.00969277
0.0102451
0.0108238
0.0113762
0.0119495
0.0124918
0.0130486
0.0135703
0.0140993
0.0145898
0.0150799
0.0155285
0.0159686
0.0163649
0.0167443
0.0170784
0.0173873
0.01765
0.0178799
0.0180636
0.0182081
0.0183074
0.0183625
0.0183747
0.0183395
0.018265
0.0181417
0.0179839
0.0177776
0.0175426
0.0172606
0.0169565
0.0166077
0.0162439
0.0158381
0.0154245
0.0149719
0.0145183
0.0140291
0.0135454
0.0130292
0.0125248
0.0119914
0.0114753
0.010934
0.010415
0.00988425
0.00939431
0.00890896
0.0085735
0.00836347
0.00832744
0.0084565
0.00872821
0.00913023
0.00961686
0.0101822
0.0107676
0.0113706
0.0119483
0.0124945
0.0130076
0.0134652
0.0138724
0.0141875
0.0143594
0.0143408
0.0140251
0.0134414
0.0125408
0.0115878
0.0110048
0.00581989
0.00617314
0.00696982
0.0075417
0.00799279
0.00826468
0.00838285
0.00843104
0.00841177
0.00837116
0.00832497
0.00823695
0.00814983
0.00799511
0.007829
0.0076064
0.00738649
0.00716006
0.00698672
0.0068687
0.00687836
0.00698512
0.00732121
0.00767881
0.00830392
0.00880646
0.00947121
0.0100134
0.0106963
0.0112484
0.0119371
0.0124895
0.0131707
0.0137129
0.0143728
0.0148944
0.0155189
0.0160093
0.0165849
0.0170334
0.0175467
0.0179429
0.0183816
0.0187155
0.0190685
0.0193311
0.0195894
0.019773
0.0199301
0.0200293
0.0200818
0.020094
0.0200419
0.0199675
0.0198142
0.0196564
0.0194081
0.0191733
0.0188385
0.0185346
0.0181232
0.0177596
0.0172825
0.0168689
0.0163372
0.0158837
0.0153083
0.0148247
0.0142166
0.0137123
0.0130826
0.0125666
0.0119262
0.0114073
0.0107668
0.010277
0.00966094
0.00932474
0.0090382
0.00899733
0.0091295
0.00939232
0.00982925
0.0103031
0.0109141
0.0114836
0.0121163
0.0126759
0.0132226
0.0137169
0.0141592
0.0145465
0.0148464
0.0149988
0.014943
0.0146127
0.0139072
0.0129917
0.0116653
0.0110796
0.00599917
0.0063775
0.00717489
0.00779998
0.0082572
0.0085804
0.00870888
0.00879671
0.00878908
0.00877881
0.00874437
0.00868737
0.00861198
0.00849606
0.00834191
0.00816734
0.00795894
0.00778623
0.00762354
0.00756505
0.00758404
0.00776632
0.00811339
0.00857419
0.00920867
0.00983609
0.0105004
0.0111734
0.0118558
0.0125403
0.0132285
0.0139114
0.0145921
0.0152596
0.015919
0.0165571
0.0171812
0.0177762
0.0183514
0.0188901
0.019403
0.0198731
0.0203114
0.0207019
0.0210546
0.021356
0.0216141
0.0218193
0.0219763
0.0220808
0.0221333
0.0221358
0.0220838
0.0219859
0.0218327
0.0216391
0.0213909
0.0211085
0.020774
0.0204115
0.0200004
0.0195675
0.0190908
0.0185977
0.0180663
0.0175234
0.0169484
0.0163661
0.0157585
0.0151474
0.0145182
0.013889
0.013249
0.0126123
0.0119724
0.0113657
0.0107366
0.0103084
0.0100088
0.00992131
0.0100431
0.0102961
0.0107206
0.0111998
0.0117962
0.0123665
0.012981
0.0135247
0.014051
0.0145052
0.0149263
0.0152455
0.0155238
0.0155789
0.0155051
0.0150656
0.0143496
0.0133387
0.0120111
0.0113844
0.00619276
0.00659819
0.00739562
0.00807887
0.00854271
0.00892132
0.00906094
0.00919157
0.00919663
0.00921918
0.0091974
0.00917376
0.00911105
0.00903701
0.00889585
0.0087737
0.00857802
0.00846598
0.00831438
0.00832555
0.00835246
0.00862359
0.0089739
0.00955161
0.0101857
0.0109479
0.0116117
0.012426
0.0131079
0.0139353
0.014623
0.0154468
0.016127
0.0169297
0.0175886
0.0183525
0.0189762
0.0196842
0.0202589
0.020895
0.0214075
0.0219574
0.0223954
0.0228468
0.0231993
0.0235426
0.0238005
0.024029
0.0241858
0.0242961
0.0243486
0.0243406
0.0242886
0.0241655
0.0240124
0.02378
0.023532
0.0231983
0.022864
0.0224382
0.0220275
0.0215198
0.0210435
0.0204645
0.0199335
0.019294
0.0187194
0.0180306
0.0174234
0.0166972
0.0160684
0.0153169
0.0146774
0.0139136
0.0132742
0.0125413
0.0119127
0.0113804
0.0110767
0.0109323
0.0110436
0.0112814
0.0116902
0.0121734
0.0127501
0.0133221
0.0139147
0.0144419
0.0149456
0.0153568
0.0157548
0.0159997
0.0162552
0.0162054
0.0161121
0.0155546
0.0148273
0.0137119
0.0123845
0.0117135
0.00657669
0.00698567
0.00759311
0.00828351
0.00880307
0.00920035
0.00943869
0.00958806
0.00966018
0.0097009
0.00971589
0.00971029
0.0096791
0.00962475
0.00953303
0.00943359
0.0093131
0.00922687
0.00916916
0.0092084
0.00934204
0.00964294
0.0100871
0.0106931
0.0114211
0.0122087
0.0129984
0.0138393
0.0146599
0.0155142
0.0163397
0.01719
0.0180033
0.0188314
0.019615
0.0204025
0.021139
0.0218681
0.0225409
0.0231952
0.023789
0.0243538
0.0248552
0.025318
0.0257161
0.0260672
0.0263535
0.0265863
0.0267559
0.0268672
0.0269181
0.0269081
0.0268419
0.026714
0.0265352
0.0262955
0.0260111
0.0256677
0.0252864
0.0248488
0.0243804
0.0238587
0.0233138
0.0227187
0.0221079
0.0214503
0.0207849
0.0200762
0.0193676
0.0186197
0.0178801
0.0171057
0.0163477
0.01556
0.0148095
0.014053
0.0133474
0.0127896
0.0124232
0.0122538
0.0123053
0.0125219
0.0128891
0.013353
0.0138877
0.0144397
0.0149851
0.0154889
0.0159345
0.0163165
0.0166227
0.0168323
0.0169381
0.0168496
0.0165694
0.0159755
0.0151542
0.0140256
0.0130274
0.0123505
0.00661868
0.00702738
0.00793387
0.00863083
0.00924151
0.00964882
0.00992038
0.0100858
0.0101887
0.0102456
0.0102996
0.01031
0.0103248
0.0102867
0.0102454
0.0101622
0.0101002
0.0100289
0.010043
0.0100939
0.010319
0.0106267
0.0112214
0.0118283
0.0127586
0.0135455
0.0145307
0.0153708
0.0163818
0.0172353
0.0182505
0.0191
0.0200971
0.0209245
0.0218806
0.0226675
0.0235604
0.0242889
0.0250979
0.0257517
0.0264588
0.0270231
0.0276133
0.0280757
0.0285376
0.0288883
0.0292145
0.0294471
0.029634
0.0297452
0.0297933
0.0297833
0.0296961
0.0295683
0.0293522
0.0291127
0.0287761
0.028433
0.0279851
0.0275479
0.0269987
0.0264776
0.0258373
0.0252427
0.0245218
0.0238648
0.0230743
0.0223662
0.0215185
0.0207713
0.0198798
0.0191061
0.0181859
0.0173989
0.0164668
0.015711
0.0148011
0.014242
0.0137409
0.0135623
0.0135771
0.013777
0.0141497
0.0145905
0.0151429
0.0156675
0.0162064
0.016681
0.017075
0.0174275
0.0176482
0.017828
0.0178366
0.0177197
0.0173344
0.0167245
0.0157279
0.0145898
0.0130969
0.0124205
0.00683171
0.00727433
0.00818514
0.00896285
0.00958377
0.0100834
0.0103738
0.010622
0.0107433
0.0108663
0.0109396
0.0110059
0.0110406
0.0110593
0.011038
0.011023
0.0109811
0.0109965
0.0110306
0.0111908
0.0114348
0.0118793
0.0124969
0.0132737
0.0142254
0.0152068
0.0162024
0.0172443
0.0182651
0.0193216
0.0203467
0.0213949
0.0224016
0.0234177
0.0243828
0.0253432
0.0262442
0.0271268
0.0279429
0.0287279
0.0294408
0.0301118
0.0307064
0.0312504
0.0317155
0.0321235
0.0324517
0.0327189
0.0329066
0.033032