/*--------------------------------*- C++ -*----------------------------------*\
| =========                 |                                                 |
| \\      /  F ield         | OpenFOAM: The Open Source CFD Toolbox           |
|  \\    /   O peration     | Version:  v2106                                 |
|   \\  /    A nd           | Website:  www.openfoam.com                      |
|    \\/     M anipulation  |                                                 |
\*---------------------------------------------------------------------------*/
FoamFile
{
    version     2.0;
    format      ascii;
    arch        "LSB;label=32;scalar=64";
    class       volScalarField;
    location    "0";
    object      expGpCoeffs43;
}
// * * * * * * * * * * * * * * * * * * * * * * * * * * * * * * * * * * * * * //

dimensions      [0 0 0 0 0 0 0];

internalField   nonuniform List<scalar> 
8000
(
0.00481628
0.00508793
0.00547867
0.00590968
0.00615798
0.00622288
0.0060424
0.00564807
0.00511239
0.00444611
0.00376145
0.00306624
0.00243166
0.00186227
0.00138734
0.00100276
0.000704245
0.000487499
0.000326791
0.000221411
0.000144815
9.7428e-05
6.26015e-05
4.0717e-05
2.44441e-05
1.38977e-05
6.768e-06
2.94971e-06
6.01903e-07
-4.77269e-07
-3.06292e-06
-7.41858e-06
-1.64823e-05
-3.04817e-05
-5.13426e-05
-7.91534e-05
-0.00011383
-0.000155255
-0.000200947
-0.000250583
-0.000299744
-0.000347983
-0.000390174
-0.000425879
-0.000450878
-0.000464882
-0.000466005
-0.00045421
-0.00043066
-0.00039559
-0.000352934
-0.000303136
-0.000251685
-0.000199088
-0.000150622
-0.000106693
-7.05988e-05
-4.25093e-05
-2.25547e-05
-1.06014e-05
-3.40473e-06
-5.59607e-07
3.67414e-06
9.85335e-06
2.44676e-05
4.80472e-05
8.57251e-05
0.00013782
0.000206282
0.000291092
0.000390063
0.000502803
0.000623239
0.000750684
0.000879578
0.00100961
0.00115414
0.00131401
0.00153154
0.00180455
0.002178
0.00264905
0.00323179
0.00392575
0.0046824
0.00550396
0.00627759
0.00699802
0.00754051
0.0078952
0.00797894
0.00778862
0.0073447
0.00663405
0.00582272
0.00491243
0.00407335
0.0033536
0.00285075
0.00257626
0.0047944
0.005066
0.0054875
0.00591862
0.00617801
0.00624351
0.00605911
0.00566517
0.0051183
0.00445193
0.00375911
0.0030636
0.00242509
0.00185536
0.00137996
0.000995114
0.000698653
0.00048177
0.00032364
0.000218217
0.000143357
9.59634e-05
6.20129e-05
4.01304e-05
2.41165e-05
1.35714e-05
6.552e-06
2.7342e-06
5.96618e-07
-4.82417e-07
-2.79367e-06
-7.14877e-06
-1.59748e-05
-2.99724e-05
-5.07386e-05
-7.85459e-05
-0.00011334
-0.00015476
-0.00020078
-0.00025041
-0.00030003
-0.000348263
-0.000390905
-0.000426605
-0.000451901
-0.000465903
-0.000467063
-0.00045527
-0.000431476
-0.000396411
-0.000353301
-0.000303509
-0.000251538
-0.000198947
-0.000150064
-0.000106141
-6.98745e-05
-4.17886e-05
-2.19748e-05
-1.0023e-05
-3.24894e-06
-4.04182e-07
3.24996e-06
9.42839e-06
2.349e-05
4.70666e-05
8.44073e-05
0.000136495
0.000204969
0.000289769
0.000389136
0.000501861
0.000622996
0.000750424
0.000879629
0.00100965
0.0011517
0.00131155
0.0015249
0.00179793
0.0021688
0.00263997
0.00322334
0.00391755
0.00468118
0.00550296
0.00628786
0.00700823
0.00756068
0.00791493
0.00800337
0.00781223
0.0073622
0.00665067
0.00582045
0.00490998
0.00405927
0.00333972
0.00282859
0.00255416
0.00477078
0.00504231
0.00549703
0.00592827
0.00619964
0.00626579
0.00607715
0.00568364
0.00512468
0.00445822
0.00375658
0.00306075
0.00241799
0.00184789
0.00137199
0.000986857
0.000692614
0.000475583
0.000320238
0.000214769
0.000141781
9.43818e-05
6.13773e-05
3.94971e-05
2.37626e-05
1.3219e-05
6.31877e-06
2.50149e-06
5.90911e-07
-4.87975e-07
-2.50292e-06
-6.85742e-06
-1.54268e-05
-2.94224e-05
-5.00864e-05
-7.78898e-05
-0.000112811
-0.000154225
-0.0002006
-0.000250223
-0.000300338
-0.000348565
-0.000391694
-0.00042739
-0.000453005
-0.000467006
-0.000468206
-0.000456414
-0.000432357
-0.000397297
-0.000353697
-0.000303912
-0.000251379
-0.000198795
-0.000149461
-0.000105544
-6.90923e-05
-4.10103e-05
-2.13486e-05
-9.39848e-06
-3.08071e-06
-2.36348e-07
2.79192e-06
8.9695e-06
2.24343e-05
4.60077e-05
8.29842e-05
0.000135065
0.000203552
0.00028834
0.000388134
0.000500843
0.000622734
0.000750144
0.000879683
0.00100968
0.00114907
0.0013089
0.00151773
0.00179078
0.00215887
0.00263017
0.00321421
0.00390869
0.00467987
0.00550189
0.00629894
0.00701926
0.00758245
0.00793624
0.00802974
0.00783772
0.0073811
0.00666863
0.005818
0.00490733
0.00404406
0.00332473
0.00280465
0.00253029
0.00474528
0.00501674
0.00550733
0.00593869
0.00622299
0.00628984
0.00609663
0.00570357
0.00513157
0.00446501
0.00375386
0.00305768
0.00241033
0.00183983
0.00136338
0.00097794
0.000686092
0.000468902
0.000316563
0.000211046
0.000140081
9.2674e-05
6.06909e-05
3.88131e-05
2.33805e-05
1.28385e-05
6.06691e-06
2.25021e-06
5.84748e-07
-4.93977e-07
-2.18896e-06
-6.54281e-06
-1.48349e-05
-2.88285e-05
-4.93821e-05
-7.71814e-05
-0.00011224
-0.000153648
-0.000200406
-0.000250021
-0.000300671
-0.00034889
-0.000392546
-0.000428236
-0.000454198
-0.000468197
-0.000469441
-0.00045765
-0.000433308
-0.000398254
-0.000354124
-0.000304347
-0.000251207
-0.000198631
-0.000148811
-0.0001049
-6.82476e-05
-4.01698e-05
-2.06724e-05
-8.72405e-06
-2.89905e-06
-5.51134e-08
2.29731e-06
8.47397e-06
2.12944e-05
4.48642e-05
8.14475e-05
0.000133521
0.000202022
0.000286797
0.000387052
0.000499745
0.000622451
0.000749842
0.000879742
0.00100972
0.00114622
0.00130603
0.00150999
0.00178306
0.00214814
0.00261959
0.00320435
0.00389912
0.00467845
0.00550073
0.00631091
0.00703117
0.00760597
0.00795925
0.00805822
0.00786525
0.0074015
0.00668801
0.00581535
0.00490447
0.00402764
0.00330855
0.00277881
0.00250452
0.00471773
0.00498912
0.00551845
0.00594838
0.00624821
0.00631582
0.00611767
0.00572511
0.00513901
0.00447234
0.00375091
0.00305436
0.00240205
0.00183113
0.00135409
0.000968311
0.00067905
0.000461687
0.000312596
0.000207025
0.000138244
9.08298e-05
5.99498e-05
3.80746e-05
2.29679e-05
1.24276e-05
5.79494e-06
1.97885e-06
5.78093e-07
-5.00459e-07
-1.84993e-06
-6.20308e-06
-1.41959e-05
-2.81872e-05
-4.86217e-05
-7.64165e-05
-0.000111623
-0.000153024
-0.000200196
-0.000249803
-0.000301031
-0.000349242
-0.000393467
-0.000429151
-0.000455486
-0.000469483
-0.000470773
-0.000458985
-0.000434336
-0.000399287
-0.000354586
-0.000304817
-0.000251021
-0.000198454
-0.000148108
-0.000104205
-6.73356e-05
-3.92623e-05
-1.99422e-05
-7.99578e-06
-2.70289e-06
1.40591e-07
1.76322e-06
7.93887e-06
2.00634e-05
4.36295e-05
7.97881e-05
0.000131853
0.000200369
0.00028513
0.000385883
0.000498558
0.000622145
0.000749516
0.000879806
0.00100976
0.00114315
0.00130294
0.00150162
0.00177472
0.00213656
0.00260816
0.0031937
0.0038888
0.00467692
0.00549948
0.00632383
0.00704403
0.00763136
0.00798409
0.00808898
0.00789498
0.00742353
0.00670895
0.0058125
0.00490138
0.00400777
0.00329107
0.00275091
0.00247669
0.00469507
0.00496712
0.00551431
0.00594915
0.00626571
0.00633647
0.00613986
0.0057516
0.00514749
0.00448236
0.00374957
0.00305493
0.00239608
0.00182693
0.00134486
0.000958715
0.000671446
0.000453897
0.000308312
0.000202683
0.00013626
8.88383e-05
5.91495e-05
3.72771e-05
2.27312e-05
1.20854e-05
5.58726e-06
1.72622e-06
5.81421e-07
-5.06848e-07
-1.5222e-06
-5.8896e-06
-1.35928e-05
-2.76467e-05
-4.79656e-05
-7.59025e-05
-0.000111252
-0.00015288
-0.00020045
-0.00025034
-0.000302125
-0.000350623
-0.000395395
-0.000431299
-0.000457994
-0.000472093
-0.000473428
-0.000461591
-0.000436647
-0.000401409
-0.000356157
-0.000306112
-0.000251683
-0.000198815
-0.000147962
-0.0001038
-6.67226e-05
-3.84795e-05
-1.93315e-05
-7.30889e-06
-2.5307e-06
3.31068e-07
1.248e-06
7.45441e-06
1.89061e-05
4.25976e-05
7.83452e-05
0.000130702
0.000199231
0.000284484
0.000385717
0.000499067
0.000623503
0.000751667
0.000882332
0.00101311
0.00113984
0.0012996
0.00149259
0.00176572
0.00212405
0.00259582
0.00318221
0.00387764
0.00467695
0.00549934
0.00634383
0.00705974
0.00766033
0.0080105
0.00812115
0.00792633
0.00743693
0.00672522
0.00578915
0.00488627
0.00397313
0.00326383
0.00272126
0.0024484
0.00468569
0.00495916
0.00550622
0.00594998
0.00626662
0.00635555
0.00615944
0.00578918
0.00518593
0.00452916
0.00379737
0.00309983
0.0024419
0.0018624
0.00138103
0.000982497
0.000694324
0.000465465
0.000320653
0.000207888
0.00014233
9.13621e-05
6.23435e-05
3.86741e-05
2.44074e-05
1.26556e-05
6.15864e-06
1.82687e-06
6.82293e-07
-5.0811e-07
-1.52327e-06
-6.0449e-06
-1.37467e-05
-2.84694e-05
-4.87845e-05
-7.82347e-05
-0.000113577
-0.00015761
-0.000205172
-0.000258064
-0.000309839
-0.000361355
-0.000406118
-0.000444357
-0.000471047
-0.000486201
-0.000487536
-0.000475182
-0.000450242
-0.000413026
-0.000367782
-0.000314792
-0.000260373
-0.000204309
-0.000153467
-0.000106572
-6.95012e-05
-3.94589e-05
-2.03145e-05
-7.48923e-06
-2.71194e-06
3.44136e-07
1.2609e-06
7.79474e-06
1.92443e-05
4.42757e-05
8.00167e-05
0.000135471
0.000203987
0.000294454
0.000395668
0.000516176
0.000640588
0.000777143
0.000907783
0.00104729
0.00116987
0.00133767
0.0015252
0.00181087
0.0021658
0.00265474
0.00323948
0.0039479
0.00474943
0.00556833
0.00641148
0.00710847
0.00770804
0.00802784
0.00813804
0.00791186
0.00742262
0.00669067
0.00575515
0.00484822
0.00393572
0.00323254
0.00269021
0.00242162
0.00467556
0.00495057
0.00549749
0.00595088
0.0062676
0.00637615
0.00618059
0.00582976
0.00522744
0.0045797
0.00384899
0.00314832
0.00249136
0.00190071
0.00142009
0.00100818
0.000720478
0.000480503
0.000335929
0.000215889
0.000150422
9.53573e-05
6.6361e-05
4.04811e-05
2.62174e-05
1.32713e-05
6.77563e-06
1.93556e-06
7.91218e-07
-5.09472e-07
-1.52443e-06
-6.2126e-06
-1.39128e-05
-2.93579e-05
-4.96689e-05
-8.0753e-05
-0.000116088
-0.000162719
-0.000210271
-0.000266405
-0.000318169
-0.000372943
-0.000417698
-0.000458458
-0.000485142
-0.000501436
-0.00050277
-0.000489857
-0.000464923
-0.000425571
-0.000380336
-0.000324165
-0.000269757
-0.000210243
-0.000159411
-0.000109565
-7.25017e-05
-4.05165e-05
-2.1376e-05
-7.68396e-06
-2.90764e-06
3.58246e-07
1.27482e-06
8.16225e-06
1.96094e-05
4.60879e-05
8.18215e-05
0.00014062
0.000209123
0.00030522
0.000406414
0.000534651
0.000659038
0.000804653
0.000935267
0.0010842
0.00120675
0.00138462
0.00157192
0.00186991
0.00222418
0.00272668
0.00331028
0.00402762
0.00482768
0.00564283
0.00648452
0.00716109
0.00775957
0.00804656
0.00815629
0.00789623
0.00740716
0.00665336
0.00571844
0.00480715
0.00389533
0.00319875
0.00265669
0.0023927
0.00466462
0.00494128
0.00548806
0.00595185
0.00626866
0.0063984
0.00620342
0.00587358
0.00527226
0.00463427
0.00390472
0.00320068
0.00254478
0.00194208
0.00146227
0.00103591
0.000748719
0.000496742
0.000352426
0.00022453
0.000159161
9.96716e-05
7.06991e-05
4.24324e-05
2.81719e-05
1.39361e-05
7.44189e-06
2.05294e-06
9.0884e-07
-5.10943e-07
-1.52568e-06
-6.39369e-06
-1.40922e-05
-3.03173e-05
-5.06238e-05
-8.34724e-05
-0.0001188
-0.000168235
-0.000215777
-0.000275411
-0.000327164
-0.000385457
-0.000430202
-0.000473684
-0.000500363
-0.000517887
-0.000519221
-0.000505704
-0.000480775
-0.000439117
-0.000393893
-0.000334287
-0.000279891
-0.000216651
-0.000165829
-0.000112797
-7.57418e-05
-4.16586e-05
-2.25222e-05
-7.89424e-06
-3.11897e-06
3.73483e-07
1.28986e-06
8.55909e-06
2.00038e-05
4.80447e-05
8.37705e-05
0.00014618
0.000214668
0.000316846
0.000418018
0.000554601
0.000678961
0.00083436
0.000964945
0.00112405
0.00124657
0.00143532
0.00162237
0.00193366
0.00228722
0.00280435
0.00338673
0.00411371
0.00491219
0.00572328
0.0065634
0.00721791
0.00781522
0.00806678
0.00817599
0.00787935
0.00739047
0.00661306
0.0056788
0.00476279
0.00385171
0.00316226
0.0026205
0.00236148
0.00465281
0.00493126
0.00547788
0.00595289
0.0062698
0.00642243
0.00622808
0.0059209
0.00532066
0.0046932
0.00396491
0.00325722
0.00260246
0.00198675
0.00150781
0.00106585
0.000779215
0.000514278
0.000370239
0.00023386
0.000168597
0.00010433
7.53836e-05
4.45395e-05
3.02824e-05
1.4654e-05
8.16133e-06
2.17968e-06
1.03585e-06
-5.12531e-07
-1.52703e-06
-6.58924e-06
-1.4286e-05
-3.13533e-05
-5.1655e-05
-8.64089e-05
-0.000121728
-0.000174192
-0.000221722
-0.000285137
-0.000336877
-0.00039897
-0.000443704
-0.000490126
-0.000516799
-0.000535651
-0.000536985
-0.000522816
-0.000497893
-0.000453745
-0.000408531
-0.000345216
-0.000290833
-0.000223569
-0.00017276
-0.000116287
-7.92405e-05
-4.28918e-05
-2.376e-05
-8.12131e-06
-3.34717e-06
3.89937e-07
1.3061e-06
8.98761e-06
2.04296e-05
5.01577e-05
8.58751e-05
0.000152185
0.000220656
0.0003294
0.000430548
0.000576144
0.000700474
0.000866438
0.000996992
0.00116709
0.00128958
0.00149006
0.00167684
0.00200249
0.00235529
0.00288823
0.00346929
0.00420667
0.00500344
0.00581015
0.00664857
0.00727927
0.0078753
0.00808861
0.00819726
0.00786113
0.00737245
0.00656955
0.00563599
0.00471489
0.00380461
0.00312286
0.00258141
0.00232776
0.00464006
0.00492044
0.00546689
0.00595403
0.00627104
0.00644838
0.0062547
0.005972
0.00537292
0.00475683
0.0040299
0.00331827
0.00266475
0.00203499
0.00155699
0.00109819
0.000812146
0.000533214
0.000389475
0.000243935
0.000178787
0.000109361
8.04422e-05
4.68148e-05
3.25615e-05
1.54292e-05
8.93822e-06
2.31654e-06
1.17301e-06
-5.14246e-07
-1.52848e-06
-6.8004e-06
-1.44952e-05
-3.2472e-05
-5.27685e-05
-8.95799e-05
-0.00012489
-0.000180625
-0.000228143
-0.000295639
-0.000347366
-0.000413562
-0.000458285
-0.000507881
-0.000534547
-0.000554834
-0.000556168
-0.000541295
-0.000516378
-0.000469541
-0.000424338
-0.000357019
-0.000302649
-0.000231041
-0.000180245
-0.000120055
-8.30186e-05
-4.42235e-05
-2.50965e-05
-8.36651e-06
-3.59359e-06
4.07705e-07
1.32363e-06
9.45036e-06
2.08894e-05
5.24395e-05
8.81478e-05
0.000158669
0.000227122
0.000342957
0.000444078
0.000599407
0.000723705
0.000901077
0.0010316
0.00121356
0.00133602
0.00154917
0.00173566
0.00207683
0.0024288
0.0029788
0.00355844
0.00430705
0.00510198
0.00590395
0.00674054
0.00734553
0.00794018
0.00811219
0.00822024
0.00784145
0.00735299
0.00652257
0.00558977
0.00466317
0.00375375
0.00308031
0.0025392
0.00229135
0.00462628
0.00490876
0.00545502
0.00595525
0.00627238
0.00647639
0.00628346
0.00602718
0.00542936
0.00482554
0.00410007
0.00338419
0.00273201
0.00208708
0.00161009
0.00113311
0.000847706
0.000553662
0.000410247
0.000254814
0.00018979
0.000114793
8.59046e-05
4.92718e-05
3.50226e-05
1.62664e-05
9.77714e-06
2.46433e-06
1.32111e-06
-5.16098e-07
-1.53006e-06
-7.02841e-06
-1.4721e-05
-3.368e-05
-5.39709e-05
-9.3004e-05
-0.000128305
-0.000187571
-0.000235076
-0.000306979
-0.000358692
-0.00042932
-0.00047403
-0.000527053
-0.000553711
-0.000575549
-0.000576882
-0.000561249
-0.000536339
-0.000486598
-0.000441408
-0.000369763
-0.000315409
-0.000239109
-0.000188326
-0.000124125
-8.70983e-05
-4.56615e-05
-2.65398e-05
-8.63129e-06
-3.85968e-06
4.26891e-07
1.34256e-06
9.95004e-06
2.13859e-05
5.49034e-05
9.06018e-05
0.00016567
0.000234105
0.000357596
0.000458689
0.000624527
0.000748791
0.000938482
0.00106897
0.00126375
0.00138616
0.001613
0.00179919
0.00215709
0.00250818
0.00307661
0.0036547
0.00441544
0.00520838
0.00600525
0.00683986
0.00741707
0.00801025
0.00813765
0.00824504
0.0078202
0.00733197
0.00647184
0.00553986
0.00460731
0.00369883
0.00303437
0.00249362
0.00225203
0.0046304
0.00491371
0.00542418
0.00593121
0.00626212
0.00648401
0.0063239
0.0060843
0.00551029
0.00491524
0.00420254
0.00348249
0.00283075
0.00217334
0.00168438
0.00119453
0.000894175
0.000590216
0.000436171
0.000273873
0.000203271
0.000123887
9.27302e-05
5.35888e-05
3.82725e-05
1.83924e-05
1.09185e-05
3.12725e-06
1.48448e-06
-4.56504e-07
-1.84398e-06
-7.49876e-06
-1.58545e-05
-3.54924e-05
-5.70956e-05
-9.76649e-05
-0.000135083
-0.000196791
-0.00024708
-0.000322032
-0.000376768
-0.000450458
-0.00049782
-0.000553214
-0.000581544
-0.000604451
-0.000606059
-0.0005899
-0.000563782
-0.000512036
-0.000464439
-0.000389801
-0.00033241
-0.000252865
-0.000199077
-0.000132102
-9.26547e-05
-4.93906e-05
-2.86798e-05
-9.95647e-06
-4.26855e-06
2.15433e-07
1.90907e-06
1.08489e-05
2.36877e-05
5.85663e-05
9.70547e-05
0.000175267
0.000248392
0.000377179
0.00048494
0.000658046
0.000790523
0.000988733
0.00112864
0.00133229
0.0014574
0.00169576
0.00188938
0.00225833
0.00262514
0.00320187
0.00379719
0.00456084
0.00535921
0.00615096
0.00696588
0.007525
0.00808038
0.00817558
0.00824728
0.00778797
0.00727443
0.00638894
0.00545803
0.00451334
0.00362617
0.00295975
0.00244879
0.00221073
0.0046557
0.00493895
0.00538985
0.00589639
0.00624593
0.00646751
0.00637935
0.00614134
0.00564056
0.00504896
0.00436596
0.00364986
0.00298524
0.00233132
0.00180458
0.00131723
0.000972854
0.000670299
0.000480624
0.00031892
0.000225952
0.000146752
0.000103409
6.42935e-05
4.29299e-05
2.30562e-05
1.26072e-05
4.81843e-06
1.66756e-06
-2.72801e-07
-2.78799e-06
-8.44094e-06
-1.88021e-05
-3.84337e-05
-6.40084e-05
-0.000104565
-0.000148393
-0.000210081
-0.000268798
-0.000343725
-0.000407611
-0.000481277
-0.000536664
-0.00059204
-0.000625426
-0.000648325
-0.000650759
-0.000634606
-0.00060483
-0.0005531
-0.000498219
-0.000423605
-0.000357012
-0.000277493
-0.000214609
-0.000147655
-0.000100885
-5.76346e-05
-3.21178e-05
-1.34005e-05
-4.94548e-06
-4.62935e-07
3.57887e-06
1.25159e-05
2.95956e-05
6.44629e-05
0.000111391
0.000189578
0.000276896
0.000405641
0.000533579
0.00070663
0.000863955
0.0010621
0.00123052
0.0014341
0.00159638
0.00183448
0.0020741
0.00244163
0.00285599
0.00342967
0.00405925
0.00481822
0.00560746
0.00639402
0.00714249
0.00769757
0.00814364
0.00823721
0.00819133
0.00773325
0.00714649
0.00626421
0.00533915
0.00439716
0.00354303
0.00287776
0.00240535
0.00216741
0.00467523
0.00495843
0.00536223
0.00586818
0.00624356
0.00646448
0.00643922
0.00620293
0.00578122
0.00519335
0.00454242
0.0038306
0.00315206
0.00250191
0.00193437
0.00144973
0.00105781
0.000756776
0.000528625
0.000367564
0.000250444
0.000171442
0.00011494
7.58527e-05
4.79592e-05
2.80924e-05
1.44307e-05
6.64464e-06
1.86525e-06
-7.44312e-08
-3.80736e-06
-9.45835e-06
-2.19851e-05
-4.16098e-05
-7.14732e-05
-0.000112015
-0.000162765
-0.000224432
-0.000292249
-0.000367151
-0.000440916
-0.000514556
-0.000578609
-0.000633966
-0.000672811
-0.000695702
-0.000699028
-0.000682881
-0.000649155
-0.000597443
-0.000534695
-0.000460107
-0.000383579
-0.000304087
-0.000231381
-0.00016445
-0.000109772
-6.65367e-05
-3.58303e-05
-1.71195e-05
-5.67645e-06
-1.19546e-06
5.38199e-06
1.43159e-05
3.59751e-05
7.08303e-05
0.000126871
0.000205032
0.000307675
0.000436375
0.000586103
0.000759093
0.000943251
0.00114133
0.00134054
0.00154405
0.00174645
0.00198428
0.00227356
0.00263957
0.00310527
0.00367565
0.00434222
0.00509615
0.00587553
0.00665649
0.00733319
0.00788393
0.00821195
0.00830375
0.00813091
0.00767417
0.00700834
0.00612951
0.00520441
0.00426519
0.00342268
0.00275843
0.0023519
0.00211409
0.004571
0.00485398
0.0053496
0.00585534
0.00632766
0.00655119
0.00661242
0.0063814
0.00598574
0.0054036
0.00473788
0.00403081
0.00330446
0.00265766
0.00203411
0.0015514
0.00111537
0.000815229
0.000559372
0.000398671
0.000266216
0.000187334
0.000122522
8.34584e-05
5.01963e-05
3.0337e-05
1.41586e-05
6.3755e-06
1.6885e-06
-2.50457e-07
-2.84701e-06
-8.49588e-06
-2.11935e-05
-4.08108e-05
-7.43523e-05
-0.000114879
-0.000173975
-0.000235619
-0.000315963
-0.000390837
-0.00047912
-0.000552732
-0.00062998
-0.000685316
-0.000732623
-0.000755506
-0.000760196
-0.000744055
-0.000704094
-0.000652402
-0.000577401
-0.000502841
-0.000411226
-0.000331765
-0.00024492
-0.000178015
-0.000113294
-7.00749e-05
-3.48809e-05
-1.61771e-05
-5.01921e-06
-5.3991e-07
3.87784e-06
1.28084e-05
3.46476e-05
6.94897e-05
0.00013232
0.000210451
0.000329462
0.000458113
0.000634406
0.000807331
0.00102613
0.00122413
0.00145984
0.00166327
0.00189448
0.00213204
0.00245315
0.00281781
0.00333091
0.00389842
0.00461955
0.00536863
0.00618685
0.00696123
0.0076244
0.00816828
0.00840825
0.00849473
0.00818522
0.00772618
0.00692501
0.00604789
0.00502017
0.00408538
0.00323524
0.00257352
0.00218874
0.00195119
0.00445914
0.00474213
0.00532384
0.00583235
0.00641496
0.00663501
0.00680022
0.00657514
0.00621141
0.00563552
0.00494932
0.00424739
0.00346729
0.00282408
0.00213775
0.00165709
0.001172
0.00087282
0.000588194
0.000427879
0.000280751
0.000201998
0.000129799
9.07607e-05
5.24405e-05
3.25892e-05
1.37444e-05
5.96442e-06
1.47666e-06
-4.61508e-07
-1.69923e-06
-7.3458e-06
-2.01114e-05
-3.97208e-05
-7.71828e-05
-0.000117693
-0.000185848
-0.000247467
-0.000341484
-0.000416327
-0.000520495
-0.000594077
-0.000685779
-0.000741093
-0.000797676
-0.00082055
-0.000826734
-0.000810599
-0.0007638
-0.000712128
-0.000623694
-0.000549165
-0.000441026
-0.000361597
-0.000259296
-0.000192417
-0.00011677
-7.35692e-05
-3.35891e-05
-1.48929e-05
-4.23176e-06
2.45724e-07
2.06812e-06
1.0995e-05
3.27725e-05
6.76005e-05
0.000137599
0.000215698
0.000352373
0.000480972
0.000686113
0.000858969
0.00111548
0.0013134
0.0015887
0.00179205
0.00205172
0.00228898
0.00263877
0.00300199
0.00356566
0.00413007
0.00491454
0.00565839
0.00652518
0.00729244
0.00794411
0.00848048
0.00862944
0.00871002
0.00825462
0.00779293
0.00683562
0.00596023
0.00482513
0.00389189
0.00304556
0.00238907
0.00201359
0.00177642
0.00438279
0.00466728
0.00524837
0.00578865
0.00637058
0.0066731
0.00685106
0.00671202
0.00636269
0.00584314
0.00515985
0.00446751
0.00368695
0.00301393
0.00232372
0.0017944
0.00130418
0.000958043
0.000670011
0.000475632
0.000326509
0.000227157
0.000154216
0.000103061
6.48027e-05
3.72581e-05
1.82137e-05
6.8691e-06
2.39863e-06
-4.16671e-07
-1.54828e-06
-7.75947e-06
-2.05252e-05
-4.30675e-05
-8.08189e-05
-0.00012863
-0.000197462
-0.000271228
-0.000366269
-0.000456701
-0.000562061
-0.000651681
-0.000744468
-0.00081256
-0.00086984
-0.000898998
-0.000905296
-0.000887251
-0.00083994
-0.000778584
-0.000689142
-0.00059959
-0.000490211
-0.000394102
-0.000290642
-0.00020918
-0.000132715
-7.96271e-05
-3.92918e-05
-1.5956e-05
-5.33776e-06
3.08583e-07
1.92857e-06
1.22312e-05
3.39952e-05
7.49399e-05
0.000145468
0.000238453
0.000376444
0.000530916
0.000738215
0.000947488
0.00120682
0.00144848
0.00172674
0.00197633
0.00223659
0.00251627
0.00286876
0.0032756
0.00384567
0.00444672
0.00523711
0.00598511
0.00685192
0.00756732
0.00820902
0.00863868
0.00877417
0.00872326
0.0082515
0.00767862
0.00670248
0.00577274
0.00463537
0.00370979
0.00286712
0.00224974
0.00187517
0.00165914
0.00430033
0.00458646
0.00516688
0.00574145
0.00632265
0.00671422
0.00689378
0.00685939
0.0065143
0.00606291
0.00538512
0.00470399
0.00392883
0.00321969
0.00253385
0.00194548
0.00145815
0.00105456
0.00076805
0.000531164
0.000382653
0.000256734
0.000183948
0.000117224
7.89847e-05
4.24872e-05
2.34518e-05
7.95897e-06
3.49063e-06
-3.45406e-07
-1.47648e-06
-8.34486e-06
-2.11045e-05
-4.70603e-05
-8.47939e-05
-0.000141102
-0.000209901
-0.000297804
-0.0003928
-0.000501376
-0.000606686
-0.000714968
-0.000807711
-0.000890674
-0.000947928
-0.000984398
-0.000990693
-0.000970425
-0.000923136
-0.00085051
-0.00076111
-0.000654074
-0.000544747
-0.000429227
-0.000325816
-0.000227383
-0.000150954
-8.63601e-05
-4.60439e-05
-1.73093e-05
-6.69609e-06
3.107e-07
1.92992e-06
1.38336e-05
3.55873e-05
8.36517e-05
0.000154146
0.000264456
0.000402382
0.000586963
0.000794165
0.00104582
0.00130503
0.00159758
0.00187571
0.00217911
0.00243924
0.00277346
0.00312475
0.00358778
0.00415452
0.00480136
0.00558621
0.00634009
0.00720007
0.00785373
0.00848919
0.00879044
0.00892216
0.00871208
0.00824006
0.00753148
0.00655848
0.00556286
0.00443045
0.00351315
0.00267444
0.00209928
0.0017257
0.0015325
0.0042113
0.00449918
0.00507888
0.00569049
0.00627089
0.00675863
0.00693992
0.00701854
0.00667801
0.00630022
0.00562838
0.00495936
0.00419003
0.00344188
0.00276077
0.00210862
0.00162442
0.00115878
0.000873917
0.00059113
0.00044328
0.000288673
0.000216053
0.000132518
9.42989e-05
4.81338e-05
2.91081e-05
9.13587e-06
4.66981e-06
-2.6845e-07
-1.39895e-06
-8.97699e-06
-2.17301e-05
-5.1372e-05
-8.90862e-05
-0.00015457
-0.000223333
-0.000326502
-0.00042145
-0.000549617
-0.000654873
-0.000783308
-0.000876004
-0.000975025
-0.00103225
-0.00107662
-0.00108291
-0.00106024
-0.00101297
-0.000928179
-0.000838825
-0.000712909
-0.000603638
-0.000467156
-0.000363798
-0.000247039
-0.000170649
-9.36307e-05
-5.33351e-05
-1.87706e-05
-8.16287e-06
3.12986e-07
1.93138e-06
1.5564e-05
3.73066e-05
9.3059e-05
0.000163517
0.000292535
0.00043039
0.000647486
0.000854581
0.001152
0.00141108
0.00175858
0.00203657
0.00239808
0.00265807
0.00305118
0.00340117
0.00392489
0.00448803
0.00518432
0.00596319
0.00672342
0.00757601
0.00816301
0.00879172
0.00895431
0.00908196
0.00870002
0.0082277
0.00737259
0.00640299
0.00533622
0.00420918
0.00330082
0.00246637
0.00193681
0.0015643
0.00139574
0.00415693
0.00444501
0.00495096
0.00557091
0.00615432
0.00667843
0.00693077
0.00705705
0.00682006
0.00647552
0.00587949
0.00521935
0.00447984
0.00371979
0.00302429
0.00234908
0.00182247
0.00133282
0.00100137
0.000699546
0.000516417
0.000348894
0.000254448
0.000163201
0.000112755
6.28334e-05
3.63747e-05
1.46617e-05
6.17719e-06
8.10591e-07
-2.74682e-06
-1.05991e-05
-2.632e-05
-5.73897e-05
-0.00010056
-0.0001696
-0.000247337
-0.000356426
-0.000463518
-0.000599284
-0.000718133
-0.000854386
-0.000959482
-0.00106473
-0.00113041
-0.00117784
-0.00118663
-0.00116303
-0.00111166
-0.00102215
-0.000923064
-0.000789826
-0.000667452
-0.000522839
-0.000405832
-0.000281964
-0.000193873
-0.000112034
-6.33166e-05
-2.64901e-05
-1.04234e-05
-1.37713e-06
4.69563e-06
1.89981e-05
4.7279e-05
0.000106012
0.00018843
0.000324702
0.000482509
0.000712215
0.000948195
0.00126337
0.0015591
0.00192792
0.00224944
0.0026335
0.00294385
0.00336381
0.00376367
0.00431341
0.00490554
0.00561957
0.00638221
0.00714056
0.00790974
0.00846525
0.00896211
0.00906545
0.00906299
0.00861056
0.00805136
0.00713823
0.00615396
0.00506217
0.00399554
0.00309667
0.00232283
0.0018075
0.00145445
0.00129413
0.00404764
0.00433545
0.00479427
0.00541219
0.00605058
0.00657197
0.00694549
0.00707231
0.00698888
0.006649
0.00616319
0.0055099
0.00479771
0.00404475
0.003308
0.00263857
0.00203541
0.00154943
0.00113904
0.000838986
0.000595586
0.000428684
0.000295174
0.000204032
0.00013077
8.08786e-05
4.25881e-05
2.0888e-05
7.14227e-06
1.77887e-06
-3.79283e-06
-1.16404e-05
-3.0482e-05
-6.15332e-05
-0.000113005
-0.000182005
-0.000275482
-0.000384506
-0.000514213
-0.000649897
-0.000794784
-0.000930956
-0.00106012
-0.00116531
-0.00124741
-0.00129482
-0.00130825
-0.00128466
-0.00122492
-0.00113546
-0.00101704
-0.000883878
-0.00073592
-0.000591394
-0.000448454
-0.00032466
-0.000215458
-0.000133667
-7.14087e-05
-3.46042e-05
-1.19036e-05
-2.86282e-06
6.98271e-06
2.12766e-05
5.68393e-05
0.000115538
0.000215617
0.000351807
0.000542942
0.00077251
0.00105943
0.00137441
0.00173637
0.00210497
0.00250348
0.00288731
0.00328702
0.0037063
0.00419661
0.00474304
0.00539142
0.0060991
0.00684842
0.00759847
0.00825295
0.00880121
0.00909803
0.0091981
0.00896732
0.00851671
0.00778233
0.00687551
0.00583313
0.00474948
0.00372163
0.00282868
0.0021129
0.00159983
0.00132643
0.00116633
0.00377635
0.00406319
0.0046038
0.00522134
0.00599627
0.00651817
0.00710662
0.00723473
0.00730024
0.00696925
0.0065343
0.00589013
0.00514194
0.00439644
0.00356787
0.00290366
0.00220145
0.0017183
0.00123467
0.000935888
0.000647885
0.000481444
0.000322814
0.000231766
0.000140655
9.07494e-05
4.20265e-05
2.03162e-05
5.68229e-06
3.14988e-07
-9.20082e-07
-8.76367e-06
-2.50459e-05
-5.60843e-05
-0.000113588
-0.000182566
-0.000294698
-0.000403696
-0.000564136
-0.000699794
-0.000882128
-0.00101828
-0.00118292
-0.0012881
-0.00139448
-0.00144189
-0.00146169
-0.00143812
-0.00136492
-0.00127549
-0.00112732
-0.000994191
-0.00080812
-0.00066362
-0.00048397
-0.000360194
-0.000224199
-0.000142416
-6.77856e-05
-3.09803e-05
-9.22827e-06
-1.86693e-07
2.01686e-06
1.6304e-05
4.79356e-05
0.00010661
0.000217665
0.000353812
0.000579429
0.000808933
0.00115703
0.00147193
0.00191815
0.00228668
0.00277843
0.00316219
0.00363429
0.00405285
0.00460457
0.0051478
0.00587155
0.00657289
0.00737239
0.00811313
0.00873431
0.00927232
0.00941161
0.00950542
0.00903246
0.00857947
0.00759951
0.00669639
0.0054793
0.00440439
0.0033353
0.00245019
0.00182194
0.00132036
0.00110384
0.000945628
0.00357079
0.00384413
0.00438322
0.00501299
0.00578383
0.00640775
0.00699393
0.00729253
0.00736505
0.00719487
0.00676709
0.00621942
0.00547899
0.00474628
0.00392371
0.00320534
0.00250505
0.00193822
0.00145438
0.00107678
0.00078776
0.000563336
0.000404328
0.000274506
0.00018411
0.00010852
5.98313e-05
2.48441e-05
1.02205e-05
8.17678e-07
-4.1653e-07
-8.83781e-06
-2.51087e-05
-6.01423e-05
-0.000117605
-0.000199554
-0.000311607
-0.000444709
-0.000605037
-0.00077371
-0.000955917
-0.00112789
-0.00129242
-0.00142812
-0.00153443
-0.00159949
-0.00161929
-0.00159596
-0.00152281
-0.0014161
-0.00126803
-0.00110452
-0.000918575
-0.000738074
-0.000558548
-0.0004014
-0.0002655
-0.00015936
-8.47808e-05
-3.51e-05
-1.33631e-05
-5.61292e-07
1.64072e-06
1.72669e-05
4.88764e-05
0.000115672
0.00022665
0.000386766
0.000612225
0.000887723
0.00123557
0.00161971
0.00206562
0.00252204
0.00301345
0.00349365
0.00396752
0.00447105
0.00502456
0.00562374
0.00634768
0.00704327
0.00783839
0.00847749
0.0090881
0.00943115
0.00956077
0.00941914
0.00894392
0.00829469
0.00731683
0.00631618
0.0051049
0.0040462
0.00298607
0.00218564
0.00156283
0.00114291
0.000927508
0.000801769
0.00334882
0.00360759
0.00414497
0.004788
0.00555442
0.00628852
0.00687224
0.00735495
0.00742963
0.00743769
0.007016
0.00657499
0.00584261
0.00512405
0.00430941
0.00353136
0.00283724
0.00217762
0.00169754
0.00123162
0.000944322
0.000653797
0.000495274
0.000321359
0.000231033
0.00012771
7.90576e-05
2.97336e-05
1.5121e-05
1.3605e-06
1.27225e-07
-8.91787e-06
-2.51765e-05
-6.45243e-05
-0.000121944
-0.000217897
-0.000329866
-0.000488996
-0.000649204
-0.000853528
-0.0010356
-0.00124626
-0.00141067
-0.00157932
-0.00168555
-0.00176969
-0.00178946
-0.00176639
-0.0016933
-0.00156794
-0.00141998
-0.00122365
-0.00103785
-0.000818472
-0.000639082
-0.000445896
-0.000310099
-0.000177656
-0.000103133
-3.95485e-05
-1.78281e-05
-9.65798e-07
1.23456e-06
1.83067e-05
4.98924e-05
0.000125458
0.000236352
0.00042235
0.00064764
0.000972804
0.00132039
0.00177928
0.00222485
0.00277619
0.00326724