/*--------------------------------*- C++ -*----------------------------------*\
| =========                 |                                                 |
| \\      /  F ield         | OpenFOAM: The Open Source CFD Toolbox           |
|  \\    /   O peration     | Version:  v2106                                 |
|   \\  /    A nd           | Website:  www.openfoam.com                      |
|    \\/     M anipulation  |                                                 |
\*---------------------------------------------------------------------------*/
FoamFile
{
    version     2.0;
    format      ascii;
    arch        "LSB;label=32;scalar=64";
    class       volScalarField;
    location    "0";
    object      expGpCoeffs44;
}
// * * * * * * * * * * * * * * * * * * * * * * * * * * * * * * * * * * * * * //

dimensions      [0 0 0 0 0 0 0];

internalField   nonuniform List<scalar> 
8000
(
0.0020791
0.00204634
0.00195661
0.00179256
0.0015591
0.00128419
0.00102535
0.000782447
0.000585955
0.00043077
0.000311312
0.00022683
0.000163847
0.000121526
9.05717e-05
7.00939e-05
5.49942e-05
4.49204e-05
3.72875e-05
3.20552e-05
2.80397e-05
2.52673e-05
2.3122e-05
2.16277e-05
2.04056e-05
1.94566e-05
1.86605e-05
1.80178e-05
1.75443e-05
1.72425e-05
1.71413e-05
1.72432e-05
1.75815e-05
1.81596e-05
1.90229e-05
2.01756e-05
2.16791e-05
2.35391e-05
2.58311e-05
2.85614e-05
3.18099e-05
3.55823e-05
3.99419e-05
4.48918e-05
5.04465e-05
5.66029e-05
6.32878e-05
7.04889e-05
7.80088e-05
8.58235e-05
9.35969e-05
0.000101292
0.000108456
0.000115046
0.000120561
0.000124959
0.000127806
0.000129071
0.000128508
0.000126109
0.000121912
0.000115934
0.000108516
9.9702e-05
9.00655e-05
7.96646e-05
6.91661e-05
5.86295e-05
4.86493e-05
3.92715e-05
3.08884e-05
2.35247e-05
1.73142e-05
1.22588e-05
8.25604e-06
5.28955e-06
3.12418e-06
1.70523e-06
7.71776e-07
3.16712e-07
-2.56936e-07
-9.60425e-07
-4.46381e-06
-1.08819e-05
-2.83129e-05
-5.76113e-05
-0.000114367
-0.000200897
-0.000338217
-0.000527887
-0.000786016
-0.00111265
-0.00149133
-0.00192718
-0.00234971
-0.00275199
-0.00306196
-0.00324361
-0.00332536
-0.00334055
0.00208174
0.00204898
0.00196454
0.0018006
0.00156034
0.00128539
0.0010221
0.000778981
0.000582685
0.000427336
0.000309208
0.000224639
0.000162713
0.000120351
9.00186e-05
6.95228e-05
5.47392e-05
4.46591e-05
3.7163e-05
3.19291e-05
2.79689e-05
2.51964e-05
2.30902e-05
2.15961e-05
2.03933e-05
1.94444e-05
1.8648e-05
1.80054e-05
1.75293e-05
1.72275e-05
1.71238e-05
1.72256e-05
1.75607e-05
1.81387e-05
1.89974e-05
2.015e-05
2.16477e-05
2.35074e-05
2.57926e-05
2.85226e-05
3.17647e-05
3.55367e-05
3.98927e-05
4.48419e-05
5.03991e-05
5.65548e-05
6.32518e-05
7.04519e-05
7.79963e-05
8.581e-05
9.362e-05
0.000101314
0.000108523
0.000115112
0.000120672
0.000125069
0.000127949
0.000129213
0.000128661
0.000126262
0.000122047
0.00011607
0.000108609
9.97956e-05
9.00997e-05
7.97002e-05
6.91415e-05
5.86062e-05
4.85792e-05
3.92026e-05
3.0795e-05
2.34322e-05
1.72206e-05
1.21659e-05
8.1806e-06
5.21448e-06
3.07442e-06
1.65572e-06
7.43346e-07
2.88529e-07
-2.08647e-07
-9.12777e-07
-4.05047e-06
-1.04772e-05
-2.6881e-05
-5.62192e-05
-0.000111198
-0.000197832
-0.000333132
-0.000523002
-0.000780235
-0.00110717
-0.0014887
-0.00192482
-0.00235565
-0.00275787
-0.00307428
-0.00325576
-0.00332658
-0.00334178
0.00208459
0.00205184
0.00197309
0.00180928
0.00156168
0.00128669
0.00101859
0.000775237
0.000579155
0.000423627
0.000306937
0.000222274
0.000161489
0.000119082
8.94214e-05
6.89061e-05
5.44638e-05
4.4377e-05
3.70286e-05
3.17929e-05
2.78926e-05
2.51197e-05
2.30558e-05
2.15618e-05
2.038e-05
1.94313e-05
1.86344e-05
1.79919e-05
1.75131e-05
1.72114e-05
1.71048e-05
1.72066e-05
1.75382e-05
1.81161e-05
1.897e-05
2.01224e-05
2.16137e-05
2.34732e-05
2.57511e-05
2.84807e-05
3.17159e-05
3.54873e-05
3.98395e-05
4.4788e-05
5.03479e-05
5.65027e-05
6.32129e-05
7.0412e-05
7.79828e-05
8.57954e-05
9.3645e-05
0.000101338
0.000108596
0.000115183
0.000120791
0.000125188
0.000128103
0.000129367
0.000128826
0.000126428
0.000122193
0.000116217
0.000108709
9.98967e-05
9.01367e-05
7.97386e-05
6.91149e-05
5.85811e-05
4.85035e-05
3.91282e-05
3.06941e-05
2.33323e-05
1.71196e-05
1.20655e-05
8.09913e-06
5.13342e-06
3.02068e-06
1.60225e-06
7.12646e-07
2.58096e-07
-1.56504e-07
-8.61323e-07
-3.60412e-06
-1.00402e-05
-2.53347e-05
-5.47159e-05
-0.000107775
-0.000194523
-0.000327641
-0.000517728
-0.000773992
-0.00110125
-0.00148585
-0.00192226
-0.00236206
-0.00276422
-0.00308757
-0.00326887
-0.00332791
-0.0033431
0.00208767
0.00205492
0.00198233
0.00181864
0.00156313
0.00128808
0.0010148
0.000771195
0.000575342
0.000419622
0.000304484
0.000219719
0.000160167
0.000117711
8.87764e-05
6.82402e-05
5.41665e-05
4.40723e-05
3.68835e-05
3.16458e-05
2.78101e-05
2.5037e-05
2.30187e-05
2.15249e-05
2.03657e-05
1.94171e-05
1.86198e-05
1.79774e-05
1.74955e-05
1.71939e-05
1.70844e-05
1.71862e-05
1.75139e-05
1.80917e-05
1.89404e-05
2.00926e-05
2.15771e-05
2.34363e-05
2.57062e-05
2.84354e-05
3.16633e-05
3.54341e-05
3.97821e-05
4.47299e-05
5.02927e-05
5.64466e-05
6.31709e-05
7.03689e-05
7.79682e-05
8.57796e-05
9.3672e-05
0.000101364
0.000108674
0.000115261
0.00012092
0.000125316
0.000128269
0.000129533
0.000129004
0.000126606
0.000122351
0.000116376
0.000108817
0.000100006
9.01767e-05
7.97801e-05
6.90861e-05
5.85539e-05
4.84217e-05
3.90478e-05
3.05852e-05
2.32245e-05
1.70104e-05
1.19571e-05
8.01115e-06
5.04589e-06
2.96266e-06
1.54451e-06
6.79494e-07
2.25233e-07
-1.00197e-07
-8.05762e-07
-3.12214e-06
-9.56828e-06
-2.36651e-05
-5.30926e-05
-0.000104079
-0.000190949
-0.000321712
-0.000512033
-0.000767251
-0.00109487
-0.00148278
-0.0019195
-0.00236898
-0.00277107
-0.00310192
-0.00328303
-0.00332934
-0.00334453
0.00209099
0.00205825
0.00199231
0.00182984
0.00156469
0.0012896
0.0010107
0.00076683
0.000571226
0.000415298
0.000301835
0.00021696
0.00015874
0.000116231
8.808e-05
6.75212e-05
5.38454e-05
4.37433e-05
3.67267e-05
3.1487e-05
2.7721e-05
2.49476e-05
2.29786e-05
2.1485e-05
2.03502e-05
1.94018e-05
1.8604e-05
1.79617e-05
1.74766e-05
1.7175e-05
1.70623e-05
1.71641e-05
1.74877e-05
1.80654e-05
1.89084e-05
2.00604e-05
2.15375e-05
2.33964e-05
2.56578e-05
2.83865e-05
3.16064e-05
3.53766e-05
3.97201e-05
4.46671e-05
5.0233e-05
5.63859e-05
6.31255e-05
7.03224e-05
7.79524e-05
8.57626e-05
9.37011e-05
0.000101392
0.000108758
0.000115344
0.000121059
0.000125455
0.000128449
0.000129713
0.000129197
0.000126799
0.000122522
0.000116547
0.000108933
0.000100124
9.02198e-05
7.98249e-05
6.90551e-05
5.85246e-05
4.83334e-05
3.89611e-05
3.04675e-05
2.3108e-05
1.68926e-05
1.18401e-05
7.91616e-06
4.95137e-06
2.9e-06
1.48216e-06
6.43696e-07
1.89746e-07
-3.93948e-08
-7.45765e-07
-2.60168e-06
-9.0587e-06
-2.1862e-05
-5.13397e-05
-0.000100088
-0.00018709
-0.00031531
-0.000505883
-0.000759972
-0.00108797
-0.00147946
-0.00191653
-0.00237646
-0.00277848
-0.00311833
-0.00329832
-0.00333089
-0.00334607
0.0021006
0.00206791
0.00201166
0.00184856
0.0015728
0.00130057
0.00100854
0.000766294
0.000567024
0.000411273
0.000299331
0.000214566
0.000157486
0.000115035
8.73735e-05
6.67837e-05
5.34987e-05
4.33881e-05
3.65575e-05
3.13155e-05
2.76248e-05
2.48511e-05
2.29353e-05
2.14419e-05
2.0337e-05
1.93803e-05
1.85821e-05
1.79334e-05
1.74451e-05
1.71386e-05
1.70228e-05
1.71205e-05
1.74402e-05
1.8014e-05
1.88515e-05
1.99994e-05
2.14692e-05
2.33236e-05
2.55767e-05
2.83006e-05
3.15127e-05
3.52784e-05
3.96175e-05
4.45614e-05
5.01303e-05
5.62828e-05
6.30371e-05
7.02375e-05
7.78971e-05
8.57157e-05
9.36987e-05
0.000101402
0.000108823
0.000115425
0.000121194
0.000125606
0.00012864
0.000129918
0.000129414
0.000127025
0.000122726
0.000116753
0.000109086
0.00010027
9.02943e-05
7.98886e-05
6.90456e-05
5.85033e-05
4.82553e-05
3.88735e-05
3.03503e-05
2.29861e-05
1.67695e-05
1.17173e-05
7.81468e-06
4.85347e-06
2.83235e-06
1.41484e-06
6.0504e-07
1.51426e-07
2.6262e-08
-6.80977e-07
-2.03966e-06
-8.50844e-06
-1.99972e-05
-4.95594e-05
-9.68199e-05
-0.000183691
-0.000309844
-0.000500088
-0.00075346
-0.00108098
-0.00148258
-0.00191642
-0.00239529
-0.00279227
-0.00314159
-0.00332002
-0.00333986
-0.00335469
0.00212383
0.00209059
0.00203446
0.00186878
0.0015934
0.00131648
0.00102479
0.000777282
0.000578248
0.000417964
0.000306161
0.000218202
0.000161195
0.000116844
8.92166e-05
6.76494e-05
5.43276e-05
4.37325e-05
3.69349e-05
3.14714e-05
2.78096e-05
2.49231e-05
2.30337e-05
2.14528e-05
2.03551e-05
1.93112e-05
1.85132e-05
1.77971e-05
1.73089e-05
1.69515e-05
1.68357e-05
1.68917e-05
1.72113e-05
1.77461e-05
1.85833e-05
1.96903e-05
2.11599e-05
2.297e-05
2.52228e-05
2.79014e-05
3.11128e-05
3.48387e-05
3.9177e-05
4.40974e-05
4.96652e-05
5.58237e-05
6.25767e-05
6.98256e-05
7.74836e-05
8.54005e-05
9.3382e-05
0.000101231
0.00010865
0.000115429
0.000121197
0.000125788
0.000128822
0.000130246
0.000129743
0.000127436
0.000123138
0.000117165
0.000109499
0.000100607
9.06324e-05
8.00988e-05
6.92579e-05
5.8576e-05
4.83299e-05
3.88359e-05
3.03143e-05
2.289e-05
1.66746e-05
1.16172e-05
7.71531e-06
4.78634e-06
2.7649e-06
1.38398e-06
5.76532e-07
1.13708e-07
9.18776e-09
-9.77905e-07
-2.27047e-06
-9.94832e-06
-2.14958e-05
-5.40535e-05
-0.000101223
-0.000193388
-0.000319343
-0.000516464
-0.000769496
-0.0011034
-0.00150453
-0.00194194
-0.00242028
-0.00281787
-0.00316671
-0.0033446
-0.00336431
-0.00337883
0.00214892
0.00211508
0.00205909
0.00189062
0.00161565
0.00133366
0.00104234
0.000789147
0.000590369
0.000425188
0.000313535
0.000222129
0.000165199
0.000118798
9.12067e-05
6.85843e-05
5.52788e-05
4.41972e-05
3.74067e-05
3.1722e-05
2.80631e-05
2.50487e-05
2.31602e-05
2.14721e-05
2.03746e-05
1.92366e-05
1.84388e-05
1.76499e-05
1.71618e-05
1.67495e-05
1.66337e-05
1.66446e-05
1.69641e-05
1.74567e-05
1.82938e-05
1.93566e-05
2.08259e-05
2.25883e-05
2.48405e-05
2.74702e-05
3.06811e-05
3.4364e-05
3.87014e-05
4.35963e-05
4.9163e-05
5.53279e-05
6.20796e-05
6.93807e-05
7.70372e-05
8.50602e-05
9.30401e-05
0.000101046
0.000108464
0.000115433
0.0001212
0.000125985
0.000129018
0.0001306
0.000130097
0.000127879
0.000123582
0.000117609
0.000109945
0.00010097
9.09976e-05
8.03258e-05
6.94871e-05
5.86545e-05
4.84105e-05
3.87954e-05
3.02755e-05
2.27862e-05
1.6572e-05
1.15091e-05
7.608e-06
4.71384e-06
2.69282e-06
1.35653e-06
5.49342e-07
7.36633e-08
-3.04244e-08
-1.3407e-06
-2.62738e-06
-1.15984e-05
-2.3114e-05
-5.89064e-05
-0.000105978
-0.000203859
-0.0003296
-0.000534148
-0.000786812
-0.0011276
-0.00152822
-0.0019695
-0.00244726
-0.00284551
-0.00319383
-0.00337115
-0.00339072
-0.00340489
0.002176
0.00214152
0.00208569
0.0019142
0.00163968
0.00135221
0.0010613
0.00080196
0.000603457
0.00043299
0.000321499
0.000226369
0.000169523
0.000120907
9.33558e-05
6.95938e-05
5.63059e-05
4.46991e-05
3.79162e-05
3.19925e-05
2.83369e-05
2.51844e-05
2.32968e-05
2.14929e-05
2.03957e-05
1.91561e-05
1.83584e-05
1.74909e-05
1.7003e-05
1.65313e-05
1.64155e-05
1.63778e-05
1.66972e-05
1.71442e-05
1.79812e-05
1.89963e-05
2.04653e-05
2.2176e-05
2.44278e-05
2.70047e-05
3.02148e-05
3.38513e-05
3.81878e-05
4.30552e-05
4.86207e-05
5.47926e-05
6.15428e-05
6.89003e-05
7.65551e-05
8.46927e-05
9.26708e-05
0.000100847
0.000108263
0.000115438
0.000121203
0.000126197
0.000129229
0.000130983
0.00013048
0.000128357
0.000124061
0.000118089
0.000110427
0.000101362
9.13919e-05
8.05709e-05
6.97346e-05
5.87392e-05
4.84975e-05
3.87516e-05
3.02335e-05
2.26742e-05
1.64613e-05
1.13924e-05
7.49213e-06
4.63556e-06
2.61499e-06
1.32688e-06
5.19981e-07
3.04218e-08
-7.31991e-08
-1.73246e-06
-3.01278e-06
-1.33803e-05
-2.48615e-05
-6.41467e-05
-0.000111112
-0.000215167
-0.000340676
-0.000553244
-0.00080551
-0.00115374
-0.00155381
-0.00199926
-0.0024764
-0.00287535
-0.00322312
-0.00339982
-0.00341923
-0.00343304
0.00220525
0.00217008
0.00211441
0.00193966
0.00166562
0.00137224
0.00108176
0.000815795
0.00061759
0.000441414
0.000330098
0.000230947
0.000174192
0.000123185
9.56764e-05
7.06838e-05
5.7415e-05
4.5241e-05
3.84665e-05
3.22847e-05
2.86325e-05
2.53309e-05
2.34444e-05
2.15154e-05
2.04185e-05
1.90691e-05
1.82716e-05
1.73193e-05
1.68315e-05
1.62956e-05
1.61799e-05
1.60897e-05
1.6409e-05
1.68068e-05
1.76435e-05
1.86072e-05
2.00758e-05
2.17309e-05
2.39821e-05
2.6502e-05
2.97114e-05
3.32978e-05
3.76332e-05
4.24709e-05
4.80351e-05
5.42145e-05
6.09631e-05
6.83815e-05
7.60346e-05
8.42958e-05
9.22721e-05
0.000100631
0.000108045
0.000115442
0.000121207
0.000126426
0.000129458
0.000131396
0.000130893
0.000128874
0.000124579
0.000118608
0.000110947
0.000101785
9.18178e-05
8.08356e-05
7.00018e-05
5.88308e-05
4.85915e-05
3.87043e-05
3.01882e-05
2.25532e-05
1.63418e-05
1.12663e-05
7.36701e-06
4.55103e-06
2.53093e-06
1.29486e-06
4.88276e-07
-1.62721e-08
-1.19389e-07
-2.1555e-06
-3.42896e-06
-1.53044e-05
-2.67485e-05
-6.98055e-05
-0.000116657
-0.000227377
-0.000352637
-0.000573865
-0.000825701
-0.00118196
-0.00158145
-0.00203139
-0.00250787
-0.00290758
-0.00325475
-0.00343078
-0.00345002
-0.00346343
0.00223684
0.00220092
0.00214542
0.00196715
0.00169364
0.00139387
0.00110386
0.000830735
0.000632851
0.000450511
0.000339384
0.000235892
0.000179234
0.000125645
9.81823e-05
7.1861e-05
5.86127e-05
4.58262e-05
3.90606e-05
3.26001e-05
2.89517e-05
2.54891e-05
2.36037e-05
2.15397e-05
2.0443e-05
1.89752e-05
1.81779e-05
1.7134e-05
1.66463e-05
1.60412e-05
1.59255e-05
1.57785e-05
1.60978e-05
1.64425e-05
1.7279e-05
1.8187e-05
1.96553e-05
2.12502e-05
2.35009e-05
2.59592e-05
2.91677e-05
3.27e-05
3.70343e-05
4.18399e-05
4.74027e-05
5.35903e-05
6.03372e-05
6.78213e-05
7.54724e-05
8.38673e-05
9.18415e-05
0.000100398
0.00010781
0.000115448
0.000121211
0.000126674
0.000129705
0.000131842
0.000131339
0.000129432
0.000125138
0.000119167
0.000111509
0.000102243
9.22776e-05
8.11214e-05
7.02904e-05
5.89296e-05
4.8693e-05
3.86532e-05
3.01393e-05
2.24225e-05
1.62127e-05
1.11302e-05
7.2319e-06
4.45974e-06
2.44017e-06
1.26028e-06
4.5404e-07
-6.66942e-08
-1.69267e-07
-2.61231e-06
-3.87836e-06
-1.73821e-05
-2.87861e-05
-7.5916e-05
-0.000122644
-0.000240562
-0.000365553
-0.000596131
-0.000847504
-0.00121244
-0.00161128
-0.00206609
-0.00254185
-0.00294238
-0.0032889
-0.00346421
-0.00348327
-0.00349625
0.00227094
0.00223421
0.00217891
0.00199684
0.00172389
0.00141722
0.00112772
0.000846868
0.000649331
0.000460334
0.000349411
0.000241231
0.000184679
0.000128301
0.000100888
7.31321e-05
5.9906e-05
4.64581e-05
3.97022e-05
3.29408e-05
2.92965e-05
2.56599e-05
2.37757e-05
2.15659e-05
2.04696e-05
1.88738e-05
1.80767e-05
1.69339e-05
1.64463e-05
1.57665e-05
1.56508e-05
1.54425e-05
1.57617e-05
1.6049e-05
1.68853e-05
1.77332e-05
1.92011e-05
2.07311e-05
2.29812e-05
2.5373e-05
2.85806e-05
3.20545e-05
3.63876e-05
4.11585e-05
4.67198e-05
5.29162e-05
5.96612e-05
6.72164e-05
7.48654e-05
8.34045e-05
9.13765e-05
0.000100147
0.000107557
0.000115454
0.000121215
0.000126941
0.000129971
0.000132324
0.000131821
0.000130035
0.000125742
0.000119772
0.000112115
0.000102736
9.27741e-05
8.143e-05
7.0602e-05
5.90364e-05
4.88025e-05
3.8598e-05
3.00865e-05
2.22814e-05
1.60734e-05
1.09832e-05
7.086e-06
4.36117e-06
2.34216e-06
1.22295e-06
4.1707e-07
-1.21142e-07
-2.23127e-07
-3.1056e-06
-4.36365e-06
-1.96257e-05
-3.09864e-05
-8.25144e-05
-0.000129109
-0.0002548
-0.000379499
-0.000620176
-0.000871049
-0.00124535
-0.0016435
-0.00210356
-0.00257854
-0.00297996
-0.00332578
-0.00350031
-0.00351917
-0.00353169
0.00232248
0.00228513
0.00222751
0.00204239
0.00177197
0.00145759
0.00116486
0.000876771
0.000673132
0.000479078
0.00036394
0.000252188
0.000192562
0.000134058
0.00010463
7.58397e-05
6.15959e-05
4.77001e-05
4.05156e-05
3.35501e-05
2.9729e-05
2.59579e-05
2.3985e-05
2.16538e-05
2.04691e-05
1.87848e-05
1.79006e-05
1.66893e-05
1.61368e-05
1.54053e-05
1.52392e-05
1.49885e-05
1.52645e-05
1.5512e-05
1.63065e-05
1.71127e-05
1.85369e-05
2.00218e-05
2.22263e-05
2.45717e-05
2.77358e-05
3.11688e-05
3.54681e-05
4.02145e-05
4.57626e-05
5.19645e-05
5.8729e-05
6.63326e-05
7.4043e-05
8.26811e-05
9.07593e-05
9.96766e-05
0.000107231
0.000115306
0.000121232
0.00012714
0.000130326
0.000132828
0.000132447
0.000130744
0.000126514
0.000120545
0.000112883
0.000103427
9.33995e-05
8.19264e-05
7.09989e-05
5.92924e-05
4.89567e-05
3.86391e-05
3.00519e-05
2.21864e-05
1.59434e-05
1.08486e-05
6.95287e-06
4.26115e-06
2.25349e-06
1.18489e-06
3.78624e-07
-1.75339e-07
-4.38321e-07
-3.66809e-06
-5.82813e-06
-2.23799e-05
-3.66397e-05
-9.13596e-05
-0.000143724
-0.000275313
-0.000406902
-0.000655324
-0.000911989
-0.00129349
-0.00169561
-0.00216241
-0.00263196
-0.00303846
-0.00337381
-0.00354976
-0.00357521
-0.0035877
0.0023943
0.00235705
0.00228069
0.0020963
0.00183064
0.00151773
0.00121921
0.000932623
0.000711715
0.000518664
0.00038695
0.000275746
0.00020475
0.000146516
0.000110605
8.19366e-05
6.44571e-05
5.06113e-05
4.19623e-05
3.50161e-05
3.05029e-05
2.67382e-05
2.42947e-05
2.19646e-05
2.04123e-05
1.87286e-05
1.75808e-05
1.63699e-05
1.56215e-05
1.48902e-05
1.4572e-05
1.43214e-05
1.44674e-05
1.47147e-05
1.53837e-05
1.61897e-05
1.7483e-05
1.89674e-05
2.10357e-05
2.33804e-05
2.64148e-05
2.98468e-05
3.40466e-05
3.87915e-05
4.43032e-05
5.05031e-05
5.73301e-05
6.49313e-05
7.28312e-05
8.14666e-05
8.98697e-05
9.87841e-05
0.000106777
0.00011485
0.000121272
0.000127178
0.000130841
0.000133342
0.000133326
0.000131624
0.00012758
0.000121613
0.00011393
0.000104476
9.42477e-05
8.27783e-05
7.15443e-05
5.98416e-05
4.91927e-05
3.88784e-05
3.00579e-05
2.21949e-05
1.58429e-05
1.07497e-05
6.85642e-06
4.16556e-06
2.22006e-06
1.15185e-06
3.43076e-07
-2.10498e-07
-1.19618e-06
-4.41594e-06
-1.00496e-05
-2.65275e-05
-5.05334e-05
-0.000104969
-0.00017598
-0.000306854
-0.000464365
-0.00071143
-0.000993093
-0.00137252
-0.00178458
-0.00224899
-0.00270471
-0.00310944
-0.00342854
-0.00360375
-0.00365526
-0.00366766
0.00247289
0.00243573
0.00235585
0.00217212
0.00189543
0.00158409
0.0012779
0.000992934
0.000753378
0.000561411
0.000411796
0.000301184
0.00021791
0.000159968
0.000117057
8.85202e-05
6.75467e-05
5.3755e-05
4.35244e-05
3.65992e-05
3.13385e-05
2.75809e-05
2.46292e-05
2.23004e-05
2.0351e-05
1.86678e-05
1.72355e-05
1.6025e-05
1.50651e-05
1.4334e-05
1.38516e-05
1.3601e-05
1.36066e-05
1.38539e-05
1.43873e-05
1.51929e-05
1.63449e-05
1.78288e-05
1.97501e-05
2.2094e-05
2.49885e-05
2.84192e-05
3.25116e-05
3.72548e-05
4.27273e-05
4.8925e-05
5.58196e-05
6.34181e-05
7.15227e-05
8.01551e-05
8.8909e-05
9.78204e-05
0.000106287
0.000114357
0.000121316
0.00012722
0.000131396
0.000133896
0.000134275
0.000132574
0.000128731
0.000122766
0.00011506
0.00010561
9.51636e-05
8.36983e-05
7.21332e-05
6.04346e-05
4.94475e-05
3.91368e-05
3.00643e-05
2.22041e-05
1.57344e-05
1.0643e-05
6.75226e-06
4.06235e-06
2.18396e-06
1.11617e-06
3.0469e-07
-2.48464e-07
-2.01454e-06
-5.22349e-06
-1.4608e-05
-3.10063e-05
-6.55364e-05
-0.000119665
-0.000210811
-0.000340914
-0.000526416
-0.000772016
-0.00108067
-0.00145787
-0.00188065
-0.00234249
-0.00278876
-0.0031917
-0.00351173
-0.00368631
-0.00374206
-0.00375435
0.00257428
0.00253724
0.00246929
0.0022871
0.00197373
0.00166439
0.00132183
0.001038
0.000778494
0.000587055
0.000424526
0.00031415
0.000223776
0.000165933
0.000119825
9.13271e-05
6.89959e-05
5.5222e-05
4.4376e-05
3.74601e-05
3.18513e-05
2.80978e-05
2.48247e-05
2.24969e-05
2.01796e-05
1.8497e-05
1.67544e-05
1.55444e-05
1.43555e-05
1.36247e-05
1.29645e-05
1.2714e-05
1.25602e-05
1.28074e-05
1.31745e-05
1.39799e-05
1.49449e-05
1.64282e-05
1.8143e-05
2.0486e-05
2.31746e-05
2.66041e-05
3.05332e-05
3.52746e-05
4.06877e-05
4.68832e-05
5.38919e-05
6.14875e-05
6.99376e-05
7.85667e-05
8.79158e-05
9.68238e-05
0.00010609
0.000114158
0.000122006
0.000127908
0.000132888
0.000135387
0.000136303
0.000134602
0.000130894
0.000124932
0.000116932
0.000107485
9.64114e-05
8.49503e-05
7.26173e-05
6.0923e-05
4.92503e-05
3.89435e-05
2.94401e-05
2.15828e-05
1.50011e-05
9.91159e-06
6.17391e-06
3.485e-06
1.90743e-06
8.40429e-07
2.91327e-07
-2.61617e-07
-1.87031e-06
-5.08359e-06
-1.51591e-05
-3.15634e-05
-7.00323e-05
-0.00012411
-0.000226766
-0.000356582
-0.000564459
-0.000809281
-0.00114795
-0.00152358
-0.00197711
-0.00243639
-0.00291287
-0.00331265
-0.00364687
-0.00381965
-0.00384132
-0.0038535
0.00268371
0.00264673
0.00258789
0.00240079
0.00205857
0.00174926
0.00136912
0.00108647
0.000803797
0.0006129
0.000437199
0.00032706
0.000229589
0.000171841
0.000122392
9.39319e-05
7.02567e-05
5.6501e-05
4.5122e-05
3.82161e-05
3.23139e-05
2.8565e-05
2.50048e-05
2.26782e-05
1.99888e-05
1.8307e-05
1.62291e-05
1.50195e-05
1.35834e-05
1.28529e-05
1.20006e-05
1.17503e-05
1.1424e-05
1.16711e-05
1.18576e-05
1.26627e-05
1.34239e-05
1.49066e-05
1.63957e-05
1.87378e-05
2.12012e-05
2.46293e-05
2.83796e-05
3.31192e-05
3.84672e-05
4.46602e-05
5.17944e-05
5.93869e-05
6.82166e-05
7.68422e-05
8.68456e-05
9.575e-05
0.000105897
0.000113961
0.000122785
0.000128684
0.000134547
0.000137045
0.000138546
0.000136846
0.00013328
0.00012732
0.000118988
0.000109545
9.77726e-05
8.63162e-05
7.31318e-05
6.14423e-05
4.90121e-05
3.87094e-05
2.87321e-05
2.08781e-05
1.41761e-05
9.0887e-06
5.52434e-06
2.83653e-06
1.56444e-06
4.98311e-07
2.83409e-07
-2.6931e-07
-1.50422e-06
-4.72235e-06
-1.50606e-05
-3.14737e-05
-7.37276e-05
-0.000127762
-0.000242659
-0.000372195
-0.00060336
-0.00084738
-0.00121814
-0.00159213
-0.00208121
-0.00253775
-0.00304174
-0.00344246
-0.00377671
-0.00395325
-0.00394824
-0.00396035
0.00279843
0.00275887
0.00270067
0.00250192
0.00216183
0.00183101
0.00145074
0.00114518
0.000860566
0.000649451
0.000473068
0.000347627
0.000249779
0.000182245
0.00013244
9.86632e-05
7.48233e-05
5.85329e-05
4.7097e-05
3.90417e-05
3.30932e-05
2.87418e-05
2.512e-05
2.23607e-05
1.95925e-05
1.75874e-05
1.54843e-05
1.40951e-05
1.26403e-05
1.18144e-05
1.09476e-05
1.06241e-05
1.02845e-05
1.04351e-05
1.06076e-05
1.12623e-05
1.20073e-05
1.32663e-05
1.47373e-05
1.67737e-05
1.92187e-05
2.22686e-05
2.60035e-05
3.03294e-05
3.56703e-05
4.14838e-05
4.86248e-05
5.59664e-05
6.48219e-05
7.34196e-05
8.34698e-05
9.2628e-05
0.000102839
0.00011143
0.000120326
0.000126933
0.000132862
0.00013609
0.000137636
0.000136515
0.000132962
0.000127304
0.00011895
0.000109508
9.76862e-05
8.60183e-05
7.2773e-05
6.08219e-05
4.83378e-05
3.78877e-05
2.78777e-05
2.00797e-05
1.33711e-05
8.5142e-06
4.96475e-06
2.54593e-06
1.2887e-06
2.95079e-07
1.43603e-07
-1.03381e-06
-2.17428e-06
-8.28776e-06
-1.8599e-05
-4.31923e-05
-8.59962e-05
-0.000156457
-0.00027271
-0.000426642
-0.000659127
-0.000930028
-0.00130242
-0.00169697
-0.00218699
-0.00265197
-0.00315338
-0.00355162
-0.00388359
-0.00405672
-0.00405113
-0.00406248
0.00292231
0.00287996
0.00282246
0.00261112
0.00227333
0.00191929
0.00154131
0.00120861
0.000925612
0.000689815
0.000514377
0.00037042
0.000273067
0.000193778
0.000144206
0.000104004
8.02623e-05
6.08539e-05
4.94532e-05
3.99356e-05
3.39975e-05
2.88481e-05
2.52283e-05
2.19154e-05
1.91485e-05
1.67674e-05
1.46653e-05
1.30669e-05
1.16128e-05
1.06759e-05
9.80951e-06
9.40085e-06
9.06144e-06
9.09974e-06
9.27213e-06
9.75195e-06
1.04966e-05
1.14953e-05
1.29657e-05
1.46465e-05
1.70903e-05
1.97003e-05
2.34335e-05
2.72782e-05
3.26165e-05
3.79888e-05
4.51264e-05
5.21763e-05
6.10276e-05
6.95929e-05
7.96384e-05
8.90924e-05
9.92986e-05
0.000108503
0.000117395
0.000124825
0.000130751
0.000134829
0.000136374
0.000135927
0.000132376
0.000127069
0.000118719
0.000109279
9.74625e-05
8.55479e-05
7.23089e-05
6.00529e-05
4.75747e-05
3.69528e-05
2.69475e-05
1.92144e-05
1.2509e-05
7.92013e-06
4.37237e-06
2.26645e-06
1.00983e-06
1.09381e-07
-4.12707e-08
-2.02868e-06
-3.15845e-06
-1.28938e-05
-2.3132e-05
-5.77196e-05
-0.000100246
-0.000190561
-0.000306107
-0.000489444
-0.000720559
-0.00102409
-0.0013943
-0.00181409
-0.00230118
-0.00277569
-0.00327393
-0.00366949
-0.003999
-0.00416844
-0.00416222
-0.00417275
0.00305609
0.00301072
0.00295397
0.00272903
0.00239373
0.00201461
0.00163912
0.00127711
0.00099585
0.000733402
0.000558983
0.000395034
0.000298215
0.000206231
0.000156912
0.000109772
8.61354e-05
6.33601e-05
5.19976e-05
4.09008e-05
3.49739e-05
2.89629e-05
2.53453e-05
2.14346e-05
1.86691e-05
1.58818e-05
1.37808e-05
1.19566e-05
1.05033e-05
9.44647e-06
8.58053e-06
8.07994e-06
7.7407e-06
7.65775e-06
7.83005e-06
8.12101e-06
8.8653e-06
9.58298e-06
1.10526e-05
1.23495e-05
1.4792e-05
1.69269e-05
2.06582e-05
2.39834e-05
2.9319e-05
3.42147e-05
4.13488e-05
4.80836e-05
5.69303e-05
6.54606e-05
7.5501e-05
8.52746e-05
9.54755e-05
0.000105342
0.00011423
0.000122549
0.000128471
0.000133467
0.000135011
0.000135292
0.000131742
0.000126816
0.00011847
0.000109032
9.7221e-05
8.504e-05
7.18078e-05
5.92225e-05
4.67507e-05
3.59432e-05
2.59431e-05
1.828e-05
1.15781e-05
7.27863e-06
3.73268e-06
1.96466e-06
7.08701e-07
-9.11431e-08
-2.40905e-07
-3.10298e-06
-4.2212e-06
-1.78676e-05
-2.80269e-05
-7.34067e-05
-0.000115634
-0.000227387
-0.00034217
-0.000557259
-0.000786895
-0.00112567
-0.00149351
-0.00194057
-0.00242448
-0.0029093
-0.00340411
-0.00379677
-0.00412362
-0.00428908
-0.00428219
-0.00429183
0.00319499
0.00314881
0.0030572
0.00283522
0.00251096
0.00212766
0.00174934
0.00137755
0.00107838
0.000806071
0.000612346
0.000440889
0.000328539
0.000231759
0.000172136
0.000122307
9.29773e-05
6.88324e-05
5.4736e-05
4.29444e-05
3.57464e-05
2.93234e-05
2.50323e-05
2.08478e-05
1.77064e-05
1.47617e-05
1.25164e-05
1.06047e-05
9.12781e-06
8.02461e-06
7.17941e-06
6.64312e-06
6.30664e-06
6.17641e-06
6.29157e-06
6.50874e-06
7.1058e-06
7.71357e-06
8.92027e-06
1.0067e-05
1.21123e-05
1.40611e-05
1.72613e-05
2.03826e-05
2.5087e-05
2.97952e-05
3.62734e-05
4.28829e-05
5.11575e-05
5.9671e-05
6.9338e-05
7.9233e-05
8.93453e-05
9.94665e-05
0.000108575
0.000117238
0.00012364
0.000128991
0.000131162
0.000131726
0.000128817
0.000124041
0.000116247
0.000106813
9.54278e-05
8.3147e-05
7.02454e-05
5.75362e-05
4.53691e-05
3.4493e-05
2.48263e-05
1.71933e-05
1.08447e-05
6.65964e-06
3.39639e-06
1.76085e-06
5.25713e-07
-2.27172e-07
-1.10301e-06
-4.36792e-06
-8.77244e-06
-2.40927e-05
-4.35393e-05
-9.3263e-05
-0.000153757
-0.000273794
-0.000413818
-0.00064082
-0.000894644
-0.00124627
-0.00162742
-0.00208364
-0.00256146
-0.00304753
-0.00351528
-0.00390089
-0.00420244
-0.00436012
-0.00439978
-0.00440899
0.00335361
0.00330763
0.00321321
0.00299296
0.00264403
0.00226394
0.00186235
0.00149357
0.00116238
0.000892127
0.000665296
0.000495027
0.000357754
0.000261587
0.000186677
0.000137121
9.94688e-05
7.54252e-05
5.71573e-05
4.53948e-05
3.61204e-05
2.97022e-05
2.4242e-05
2.0059e-05
1.62864e-05
1.33434e-05
1.08704e-05
8.95985e-06
7.4689e-06
6.36636e-06
5.5763e-06
5.04034e-06
4.71903e-06
4.58887e-06
4.60813e-06
4.82517e-06
5.16442e-06
5.77183e-06
6.51476e-06
7.66076e-06
9.00402e-06
1.09517e-05
1.32144e-05
1.63338e-05
1.99329e-05
2.46382e-05
2.99886e-05
3.65942e-05
4.39243e-05
5.24327e-05
6.15516e-05
7.14408e-05
8.15491e-05
9.16643e-05
0.000101331
0.000109989
0.000117378
0.000122726
0.000126065
0.000126629
0.000124799
0.000120026
0.000113036
0.000103607
9.27177e-05
8.04442e-05
6.78523e-05
5.51506e-05
4.3304e-05
3.24344e-05
2.32474e-05
1.56189e-05
9.90708e-06
5.72454e-06
3.07013e-06
1.43556e-06
4.5011e-07
-3.02231e-07
-2.24402e-06
-5.5006e-06
-1.49805e-05
-3.0227e-05
-6.38592e-05
-0.000113254
-0.000201525
-0.000320631
-0.000500896
-0.000726034
-0.00102357
-0.00137227
-0.00178329
-0.00223569
-0.00271507
-0.00319718
-0.00364768
-0.00403036
-0.00432712
-0.00448355
-0.00452359
-0.00453265
0.00354952
0.0035035
0.00342736
0.00320227
0.00280562
0.00242535
0.00196182
0.0015956
0.00122087
0.000951867
0.000696507
0.000526825
0.000372068
0.00027619
0.000192176
0.000142688
0.000101181
7.71542e-05
5.7336e-05
4.55758e-05
3.55046e-05
2.90851e-05
2.2947e-05
1.87651e-05
1.44154e-05
1.14743e-05
8.80885e-06
6.90001e-06
5.47537e-06
4.37395e-06
3.70677e-06
3.17123e-06
2.89937e-06
2.76909e-06
2.68699e-06
2.90354e-06
2.93672e-06
3.54333e-06
3.72511e-06
4.8698e-06
5.3588e-06
7.30429e-06
8.43072e-06
1.15464e-05
1.38299e-05
1.85298e-05
2.25985e-05
2.91969e-05
3.5572e-05
4.4072e-05
5.28497e-05
6.27305e-05
7.32779e-05
8.3386e-05
9.42221e-05
0.000102875
0.000111873
0.00011722
0.00012216
0.000122726
0.000122052
0.000117284
0.000110761
0.000101339
9.02965e-05
7.80321e-05
6.50117e-05
5.23191e-05
4.02241e-05
2.93627e-05
2.04415e-05
1.28196e-05
7.92328e-06
3.74503e-06
2.15746e-06
5.24426e-07
4.0082e-07
-3.50971e-07
-1.84645e-06
-5.10431e-06
-1.54391e-05
-3.06796e-05
-7.00879e-05
-0.000119399
-0.000225379
-0.000344086
-0.000558755
-0.000782638
-0.00112572
-0.00147223
-0.00192832
-0.00237728
-0.00288908
-0.00336775
-0.00382986
-0.0042118
-0.00450066
-0.0046599
-0.00466068
-0.00466976
0.00374716
0.00369712
0.00362211
0.00338015
0.00298722
0.00257571
0.00211602
0.00171052
0.00133763
0.00102996
0.000775837
0.000573669
0.000419595
0.000300686
0.000216814
0.000153616
0.000112081
8.09937e-05
6.11566e-05
4.61055e-05
3.59952e-05
2.80865e-05
2.19045e-05
1.71216e-05
1.27624e-05
9.79597e-06
7.13242e-06
5.47786e-06
4.05421e-06
3.17468e-06
2.50796e-06
2.01793e-06
1.74626e-06
1.5014e-06
1.41936e-06
1.44519e-06
1.47835e-06
1.86166e-06
2.04331e-06
2.87347e-06
3.36213e-06
4.75847e-06
5.88412e-06
8.07453e-06
1.03564e-05
1.37247e-05
1.77906e-05
2.28032e-05
2.91739e-05
3.61557e-05
4.49272e-05
5.37443e-05
6.42842e-05
7.40789e-05
8.49075e-05
9.40684e-05
0.00010306
0.000109539
0.000114475
0.000116417
0.000115743
0.000112207
0.000105688
9.7139e-05
8.6104e-05
7.43962e-05
6.13849e-05
4.91764e-05
3.70897e-05
2.68941e-05
1.79791e-05
1.12575e-05
6.36457e-06
3.05069e-06
1.46423e-06
9.67646e-08
-8.6577e-09
-1.99457e-06
-3.41451e-06
-1.15319e-05
-2.18054e-05
-4.97991e-05
-8.91781e-05
-0.000163605
-0.000269685
-0.000425746
-0.000639751
-0.000905493
-0.00124652
-0.00162587
-0.00207913
-0.00254035
-0.00304839
-0.00351705
-0.00397545
-0.00434051
-0.00462669
-0.00478051
-0.0047806
-0.00479122
0.00396059
0.0039062
0.00383115
0.00357224
0.00318333
0.00273807
0.00228253
0.0018346
0.00146478
0.00111438
0.000862166
0.000624252
0.000471237
0.000327138
0.000243781
0.000165494
0.000124166
8.52412e-05
6.54658e-05
4.67024e-05
3.66015e-05
2.6981e-05
2.07989e-05
1.53334e-05
1.09774e-05
7.98368e-06
5.32214e-06
3.94216e-06
2.51958e-06
1.87966e-06
1.21345e-06
7.72551e-07
5.01084e-07
1.32497e-07
5.05227e-08
-1.29587e-07
-9.64511e-08
4.57166e-08
2.27237e-07
7.1776e-07
1.20605e-06
2.00939e-06