/*--------------------------------*- C++ -*----------------------------------*\
| =========                 |                                                 |
| \\      /  F ield         | OpenFOAM: The Open Source CFD Toolbox           |
|  \\    /   O peration     | Version:  v2106                                 |
|   \\  /    A nd           | Website:  www.openfoam.com                      |
|    \\/     M anipulation  |                                                 |
\*---------------------------------------------------------------------------*/
FoamFile
{
    version     2.0;
    format      ascii;
    arch        "LSB;label=32;scalar=64";
    class       volScalarField;
    location    "0";
    object      expGpCoeffs25;
}
// * * * * * * * * * * * * * * * * * * * * * * * * * * * * * * * * * * * * * //

dimensions      [0 0 0 0 0 0 0];

internalField   nonuniform List<scalar> 
8000
(
0.0162891
0.0161165
0.0156275
0.0147203
0.0133684
0.0117156
0.0100434
0.00836194
0.00688635
0.00559216
0.00451168
0.00364483
0.00294585
0.00241141
0.00199184
0.00167906
0.00143455
0.00125401
0.00111094
0.00100485
0.000920806
0.000859412
0.000810842
0.000775653
0.000746399
0.00072311
0.000703346
0.00068714
0.000675128
0.000667391
0.000664798
0.000667417
0.000676031
0.000690702
0.000712195
0.000740568
0.000776567
0.000820244
0.000872236
0.000932573
0.0010016
0.0010793
0.00116545
0.00125998
0.00136178
0.0014707
0.00158449
0.00170288
0.00182237
0.00194257
0.00205882
0.00217062
0.00227254
0.00236408
0.0024397
0.00249895
0.00253714
0.00255393
0.00254641
0.00251445
0.00245766
0.00237616
0.00227239
0.00214672
0.00200421
0.00184542
0.00167724
0.00150035
0.00132237
0.00114396
0.00097221
0.000807712
0.000655978
0.000517429
0.000395145
0.000289297
0.000200374
0.000127498
7.30814e-05
3.73518e-05
3.89006e-05
7.78599e-05
0.000204688
0.000420958
0.000804517
0.00136462
0.00217479
0.00324981
0.00463031
0.00631587
0.00828214
0.0105201
0.0128602
0.0153207
0.0175681
0.0195649
0.0210597
0.0219018
0.0222786
0.0223466
0.016303
0.0161305
0.0156727
0.0147662
0.0133845
0.0117317
0.0100329
0.0083504
0.00686929
0.00557404
0.00449693
0.00362938
0.00293541
0.00240055
0.00198531
0.00167231
0.00143087
0.00125023
0.00110881
0.00100269
0.000919394
0.000857996
0.000810151
0.000774966
0.000746127
0.000722841
0.000703044
0.00068684
0.000674745
0.000667009
0.000664345
0.000666964
0.000675512
0.000690182
0.000711611
0.00073998
0.000775921
0.000819593
0.000871544
0.000931874
0.0010009
0.00107859
0.0011648
0.00125932
0.00136128
0.00147018
0.00158424
0.00170262
0.00182249
0.00194268
0.00205939
0.00217118
0.00227362
0.00236514
0.00244124
0.00250048
0.00253903
0.00255581
0.00254845
0.0025165
0.00245961
0.00237812
0.002274
0.00214834
0.00200527
0.00184649
0.00167762
0.00150076
0.00132208
0.0011437
0.000971352
0.000806875
0.000654724
0.000516192
0.000393746
0.000287911
0.000199099
0.000126234
7.13354e-05
3.56217e-05
3.45911e-05
7.36074e-05
0.000194689
0.000411177
0.000786897
0.00134754
0.00215131
0.00322723
0.00460555
0.00629233
0.00826418
0.0105036
0.0128632
0.0153245
0.0176061
0.0196023
0.0211172
0.0219585
0.0222841
0.022352
0.016318
0.0161455
0.0157216
0.0148156
0.0134019
0.0117492
0.0100216
0.00833793
0.00685087
0.00555448
0.00448101
0.00361269
0.00292414
0.00238882
0.00197827
0.00166502
0.00142689
0.00124615
0.00110651
0.00100036
0.000917869
0.000856466
0.000809405
0.000774224
0.000745833
0.00072255
0.000702718
0.000686517
0.000674331
0.000666596
0.000663856
0.000666474
0.000674952
0.00068962
0.00071098
0.000739346
0.000775224
0.000818889
0.000870797
0.000931119
0.00100014
0.00107782
0.0011641
0.00125861
0.00136074
0.00146962
0.00158397
0.00170233
0.00182262
0.00194279
0.00206001
0.00217179
0.00227478
0.00236629
0.00244291
0.00250214
0.00254107
0.00255785
0.00255066
0.00251871
0.00246171
0.00238023
0.00227573
0.00215009
0.0020064
0.00184765
0.00167804
0.0015012
0.00132177
0.00114341
0.000970425
0.000805971
0.000653369
0.000514856
0.000392235
0.000286415
0.000197722
0.000124869
6.94499e-05
3.37534e-05
2.99375e-05
6.90153e-05
0.000183891
0.000400614
0.000767871
0.0013291
0.00212597
0.00320286
0.00457881
0.00626692
0.0082448
0.0104857
0.0128663
0.0153287
0.0176471
0.0196428
0.0211793
0.0220197
0.02229
0.0223579
0.0163342
0.0161618
0.0157743
0.0148691
0.0134207
0.011768
0.0100095
0.00832447
0.00683098
0.00553336
0.00446381
0.00359467
0.00291198
0.00237616
0.00197067
0.00165715
0.0014226
0.00124175
0.00110402
0.000997843
0.000916223
0.000854815
0.0008086
0.000773422
0.000745515
0.000722236
0.000702367
0.000686168
0.000673884
0.000666151
0.000663328
0.000665946
0.000674348
0.000689013
0.000710299
0.00073866
0.000774471
0.00081813
0.000869991
0.000930304
0.000999324
0.00107699
0.00116335
0.00125784
0.00136015
0.00146902
0.00158368
0.00170203
0.00182275
0.00194291
0.00206068
0.00217244
0.00227603
0.00236752
0.0024447
0.00250393
0.00254327
0.00256005
0.00255304
0.00252109
0.00246399
0.00238251
0.00227759
0.00215198
0.00200763
0.0018489
0.00167849
0.00150168
0.00132144
0.00114311
0.000969424
0.000804995
0.000651906
0.000513414
0.000390603
0.000284799
0.000196235
0.000123395
6.74139e-05
3.1736e-05
2.49123e-05
6.40566e-05
0.000172232
0.000389209
0.000747325
0.00130918
0.0020986
0.00317654
0.00454995
0.00623948
0.00822386
0.0104665
0.0128697
0.0153332
0.0176914
0.0196864
0.0212463
0.0220858
0.0222964
0.0223643
0.0163517
0.0161793
0.0158312
0.0149318
0.013441
0.0117883
0.00999629
0.00830994
0.0068095
0.00551055
0.00444523
0.00357521
0.00289884
0.00236248
0.00196245
0.00164864
0.00141796
0.00123699
0.00110134
0.000995125
0.000914445
0.000853032
0.00080773
0.000772557
0.000745172
0.000721896
0.000701987
0.00068579
0.000673402
0.00066567
0.000662758
0.000665376
0.000673695
0.000688358
0.000709564
0.00073792
0.000773657
0.000817309
0.00086912
0.000929424
0.000998442
0.0010761
0.00116254
0.00125701
0.00135952
0.00146837
0.00158337
0.0017017
0.0018229
0.00194303
0.00206141
0.00217315
0.00227738
0.00236886
0.00244664
0.00250586
0.00254565
0.00256243
0.00255561
0.00252367
0.00246644
0.00238498
0.00227961
0.00215401
0.00200895
0.00185025
0.00167898
0.00150219
0.00132108
0.00114277
0.000968344
0.000803941
0.000650327
0.000511857
0.000388842
0.000283054
0.00019463
0.000121803
6.52154e-05
2.95575e-05
1.94859e-05
5.8702e-05
0.000159642
0.000376892
0.000725139
0.00128767
0.00206904
0.00314811
0.00451877
0.00620985
0.00820126
0.0104457
0.0128733
0.015338
0.0177392
0.0197336
0.0213222
0.0221572
0.0223033
0.0223712
0.0164
0.0162281
0.0159289
0.0150304
0.013492
0.011857
0.00999409
0.00831875
0.00678789
0.00549053
0.00442805
0.0035594
0.00288756
0.00235219
0.00195416
0.00164
0.00141295
0.00123185
0.00109845
0.00099219
0.000912525
0.000851106
0.000806791
0.000771623
0.00074488
0.000721395
0.000701446
0.000685069
0.00067258
0.0006647
0.000661703
0.000664199
0.000672438
0.000687
0.000708128
0.000736399
0.000772065
0.000815646
0.000867408
0.000927662
0.000996679
0.00107431
0.00116083
0.00125532
0.00135802
0.00146695
0.00158226
0.00170072
0.00182238
0.00194269
0.00206164
0.00217359
0.00227844
0.00237016
0.00244852
0.00250795
0.00254818
0.00256514
0.00255851
0.00252668
0.00246933
0.0023879
0.0022821
0.00215645
0.0020107
0.00185187
0.00167976
0.00150281
0.00132085
0.00114237
0.000967218
0.000802674
0.000648555
0.000510016
0.000386805
0.000281041
0.000192897
0.000120084
6.28413e-05
2.72051e-05
1.36262e-05
5.29199e-05
0.000146047
0.000363592
0.000702443
0.00126585
0.00204752
0.00312397
0.00449557
0.00618319
0.00818446
0.0104255
0.0129087
0.0153561
0.017835
0.0198047
0.0214259
0.0222516
0.0223421
0.0224084
0.0165145
0.0163411
0.0160425
0.0151369
0.0136004
0.0119516
0.0100907
0.00839609
0.00686681
0.00554779
0.00448644
0.00359771
0.0029266
0.00237561
0.001978
0.00165353
0.00142592
0.0012383
0.00110536
0.00099551
0.000916329
0.000852758
0.000808985
0.000771866
0.000745281
0.000719601
0.000699657
0.00068139
0.000668903
0.000659486
0.000656489
0.000657741
0.000665978
0.00067952
0.000700643
0.000728076
0.000763735
0.000806664
0.000858416
0.000918258
0.000987262
0.00106482
0.00115132
0.00124618
0.00134886
0.00145868
0.00157398
0.0016939
0.00181555
0.00193785
0.00205677
0.00217111
0.00227594
0.00237018
0.00244853
0.00251034
0.00255056
0.0025694
0.00256277
0.00253206
0.00247472
0.00239347
0.00228769
0.00216125
0.00201553
0.00185511
0.00168304
0.00150402
0.00132209
0.0011415
0.000966378
0.000800119
0.000646029
0.000506551
0.000383363
0.000277665
0.0001897
0.00011811
6.07508e-05
2.85804e-05
1.41361e-05
6.2889e-05
0.00015477
0.000391744
0.000731892
0.00132291
0.00210349
0.00321192
0.00458182
0.00629744
0.00829645
0.0105531
0.0130338
0.0154812
0.0179576
0.0199188
0.0215379
0.0223574
0.0224474
0.022512
0.0166382
0.016463
0.0161651
0.0152519
0.0137176
0.0120538
0.010195
0.0084796
0.00695203
0.00560961
0.00454949
0.00363908
0.00296875
0.0024009
0.00200375
0.00166814
0.00144077
0.00124678
0.00111397
0.00100066
0.000921538
0.000855556
0.000811802
0.000772294
0.000745714
0.000717665
0.000697724
0.000677418
0.000664933
0.000653856
0.00065086
0.000650767
0.000659003
0.000671442
0.000692561
0.000719088
0.00075474
0.000796964
0.000848706
0.000908103
0.000977094
0.00105457
0.00114105
0.00123631
0.00133897
0.00144976
0.00156504
0.00168655
0.00180817
0.00193263
0.00205153
0.00216843
0.00227325
0.00237021
0.00244855
0.00251291
0.00255312
0.002574
0.00256738
0.00253787
0.00248055
0.00239948
0.00229372
0.00216643
0.00202074
0.00185861
0.00168657
0.00150532
0.00132343
0.00114056
0.000965472
0.00079736
0.000643301
0.000502809
0.000379646
0.00027402
0.000186073
0.000115961
5.86219e-05
3.07989e-05
1.63324e-05
7.55171e-05
0.000167198
0.000424135
0.000763693
0.00138452
0.00216394
0.00330689
0.00467496
0.0064208
0.00841738
0.010691
0.0131689
0.0156164
0.01809
0.0200421
0.0216589
0.0224716
0.022561
0.0226239
0.0167717
0.0165947
0.0162976
0.0153761
0.0138441
0.0121641
0.0103076
0.00856979
0.00704406
0.00567638
0.00461758
0.00368375
0.00301426
0.00242821
0.00203155
0.00168391
0.00145682
0.00125595
0.00112328
0.00100621
0.000927162
0.000858578
0.000814845
0.000772755
0.000746181
0.000715574
0.000695637
0.000673128
0.000660645
0.000647776
0.000644781
0.000643236
0.00065147
0.000662719
0.000683834
0.000709383
0.000745027
0.00078649
0.00083822
0.000897138
0.000966113
0.0010435
0.00112996
0.00122565
0.00132828
0.00144013
0.00155538
0.00167861
0.0018002
0.00192699
0.00204586
0.00216554
0.00227033
0.00237025
0.00244856
0.00251569
0.00255589
0.00257897
0.00257235
0.00254415
0.00248684
0.00240598
0.00230024
0.00217203
0.00202637
0.00186238
0.00169038
0.00150673
0.00132488
0.00113954
0.000964493
0.000794381
0.000640355
0.000498769
0.000375633
0.000270084
0.000182156
0.000113641
5.63231e-05
3.31946e-05
1.87041e-05
8.91535e-05
0.000180619
0.000459112
0.000798032
0.00145105
0.0022292
0.00340944
0.00477553
0.00655402
0.00854796
0.0108398
0.0133147
0.0157623
0.018233
0.0201751
0.0217895
0.022595
0.0226837
0.0227448
0.0169159
0.016737
0.0164407
0.0155101
0.0139807
0.0122832
0.0104292
0.00866717
0.00714343
0.00574847
0.0046911
0.00373198
0.00306341
0.0024577
0.00206158
0.00170094
0.00147414
0.00126585
0.00113332
0.00101222
0.000933236
0.00086184
0.000818131
0.000773254
0.000746687
0.000713315
0.000693383
0.000668495
0.000656016
0.000641211
0.000638217
0.000635104
0.000643336
0.0006533
0.00067441
0.000698903
0.000734538
0.00077518
0.000826898
0.000885297
0.000954256
0.00103155
0.00111799
0.00121414
0.00131675
0.00142973
0.00154495
0.00167003
0.00179159
0.0019209
0.00203974
0.00216242
0.00226718
0.00237028
0.00244858
0.00251869
0.00255888
0.00258434
0.00257771
0.00255093
0.00249363
0.00241299
0.00230728
0.00217807
0.00203245
0.00186646
0.0016945
0.00150825
0.00132644
0.00113844
0.000963436
0.000791164
0.000637175
0.000494406
0.000371299
0.000265833
0.000177927
0.000111135
5.38407e-05
3.57815e-05
2.12651e-05
0.000103879
0.000195111
0.000496882
0.000835114
0.00152289
0.00229968
0.00352018
0.00488413
0.00669787
0.00868897
0.0110006
0.0134723
0.0159199
0.0183874
0.0203188
0.0219305
0.0227282
0.0228161
0.0228753
0.0170717
0.0168906
0.0165951
0.0156549
0.0141283
0.0124119
0.0105605
0.00877233
0.00725074
0.00582632
0.00477049
0.00378407
0.00311649
0.00248954
0.002094
0.00171934
0.00149285
0.00127653
0.00114417
0.0010187
0.000939795
0.000865363
0.000821679
0.000773793
0.000747232
0.000710877
0.00069095
0.000663493
0.000651017
0.000634122
0.000631129
0.000626323
0.000634553
0.000643129
0.000664233
0.000687586
0.000723212
0.000762967
0.000814671
0.000872511
0.000941452
0.00101864
0.00110506
0.00120171
0.00130429
0.0014185
0.00153369
0.00166077
0.0017823
0.00191432
0.00203313
0.00215904
0.00226378
0.00237032
0.0024486
0.00252193
0.00256211
0.00259013
0.00258351
0.00255824
0.00250096
0.00242056
0.00231487
0.0021846
0.00203901
0.00187087
0.00169895
0.00150989
0.00132813
0.00113725
0.000962295
0.00078769
0.00063374
0.000489695
0.000366619
0.000261243
0.00017336
0.00010843
5.11601e-05
3.8575e-05
2.40306e-05
0.000119779
0.00021076
0.000537667
0.000875156
0.00160046
0.00237578
0.00363976
0.0050014
0.00685321
0.00884124
0.0111742
0.0136424
0.0160901
0.0185542
0.020474
0.0220828
0.022872
0.0229592
0.0230162
0.0172398
0.0170564
0.0167619
0.0158113
0.0142876
0.0125507
0.0107023
0.00888588
0.00736662
0.00591039
0.00485622
0.00384032
0.0031738
0.00252393
0.002129
0.0017392
0.00151305
0.00128807
0.00115589
0.0010257
0.000946877
0.000869167
0.000825511
0.000774374
0.000747821
0.000708243
0.000688322
0.000658091
0.000645618
0.000626467
0.000623474
0.000616841
0.000625068
0.000632145
0.000653244
0.000675365
0.000710982
0.000749778
0.000801469
0.000858703
0.000927626
0.0010047
0.0010911
0.00118828
0.00129084
0.00140637
0.00152153
0.00165077
0.00177227
0.00190722
0.002026
0.0021554
0.00226011
0.00237036
0.00244861
0.00252543
0.0025656
0.00259639
0.00258977
0.00256615
0.00250888
0.00242873
0.00232308
0.00219165
0.0020461
0.00187563
0.00170376
0.00151166
0.00132996
0.00113597
0.000961063
0.000783938
0.000630031
0.000484607
0.000361566
0.000256287
0.000168428
0.000105508
4.82655e-05
4.15916e-05
2.70169e-05
0.00013695
0.000227659
0.000581709
0.000918394
0.00168423
0.00245796
0.00376889
0.00512804
0.00702095
0.00900566
0.0113616
0.013826
0.0162739
0.0187342
0.0206416
0.0222473
0.0230274
0.0231137
0.0231683
0.0174938
0.0173083
0.0170001
0.0160372
0.0145372
0.0127694
0.0109224
0.0090752
0.00753486
0.00605413
0.00498188
0.00394309
0.0032581
0.00259036
0.00217813
0.00177748
0.0015397
0.00130909
0.00117084
0.00103758
0.000955803
0.000875586
0.00083016
0.000776318
0.000747663
0.000705856
0.000683649
0.000651498
0.000637154
0.00061644
0.000611929
0.000604029
0.000611025
0.000617062
0.000637155
0.00065842
0.000693233
0.00073136
0.000782471
0.00083928
0.000907913
0.000984903
0.00107139
0.00116894
0.00127207
0.0013885
0.00150476
0.00163549
0.00175861
0.00189558
0.00201642
0.00214824
0.00225529
0.00236809
0.00244871
0.00252793
0.00257021
0.00260292
0.00259788
0.00257539
0.00251895
0.00243899
0.00233331
0.00220109
0.0020547
0.00188262
0.00170929
0.00151511
0.00133165
0.00113553
0.00095898
0.000780128
0.000625092
0.000478728
0.00035535
0.00025015
0.000163054
0.000101806
4.66731e-05
4.49995e-05
3.72058e-05
0.00015788
0.000265643
0.000638653
0.00100643
0.00180135
0.00261209
0.00395999
0.00534311
0.00726882
0.00926099
0.0116355
0.0140962
0.0165588
0.0189771
0.0208965
0.0224523
0.0232362
0.0233544
0.0234087
0.0178477
0.0176626
0.0172605
0.0163012
0.0148407
0.0130804
0.011244
0.00940555
0.007809
0.00633531
0.00518302
0.00414896
0.00339023
0.00272539
0.00225787
0.00185884
0.00158561
0.00135579
0.00119781
0.00106491
0.00097194
0.00089186
0.000837009
0.000783193
0.000745955
0.000704161
0.000675047
0.000642906
0.000622909
0.000602202
0.000593107
0.000585209
0.000588493
0.000594528
0.000611599
0.000632858
0.000665265
0.00070338
0.00075277
0.000809561
0.000877361
0.000954326
0.00104115
0.00113867
0.00124357
0.00135997
0.00147962
0.0016103
0.0017384
0.00187532
0.00200247
0.00213425
0.0022484
0.00236117
0.00244897
0.00252816
0.00257683
0.00260953
0.00260924
0.00258677
0.00253278
0.00245285
0.00234701
0.00221484
0.0020658
0.00189378
0.00171592
0.00152181
0.00133293
0.00113688
0.000955272
0.000776478
0.000617947
0.00047163
0.000347168
0.000242001
0.000157075
9.58546e-05
5.11499e-05
4.94446e-05
7.15124e-05
0.000191733
0.000362064
0.000733386
0.00119976
0.00199075
0.00291961
0.00426076
0.00575223
0.00766841
0.00972165
0.0120846
0.0145235
0.0169748
0.0192923
0.0212042
0.0226833
0.0234641
0.0236979
0.0237518
0.0182349
0.0180503
0.0176368
0.0166807
0.0151839
0.0134314
0.0115913
0.00976227
0.00810504
0.00663893
0.00540022
0.00437128
0.00353291
0.00287122
0.00234398
0.0019467
0.00163517
0.00140622
0.00122693
0.00109442
0.000989366
0.000909433
0.000844405
0.000790617
0.00074411
0.000702331
0.000665758
0.000633628
0.000607527
0.000586827
0.000572783
0.000564888
0.000564162
0.000570195
0.000584003
0.000605254
0.000635064
0.000673166
0.000720697
0.000777469
0.00084437
0.000921308
0.0010085
0.00110598
0.0012128
0.00132916
0.00145247
0.0015831
0.00171658
0.00185345
0.00198741
0.00211913
0.00224097
0.0023537
0.00244924
0.00252841
0.00258398
0.00261666
0.00262151
0.00259904
0.00254772
0.00246782
0.00236181
0.00222968
0.00207779
0.00190583
0.00172308
0.00152904
0.00133433
0.00113834
0.000951269
0.000772536
0.000610233
0.000463967
0.000338332
0.000233202
0.000150619
8.9428e-05
5.59842e-05
5.42447e-05
0.000108558
0.00022829
0.000466183
0.000835683
0.00140853
0.00219526
0.00325169
0.00458555
0.00619402
0.0080999
0.0102191
0.0125695
0.0149849
0.0174241
0.0196642
0.0215687
0.0230407
0.0238188
0.0240704
0.0241239
0.0187351
0.0185511
0.0182162
0.017268
0.0156432
0.0139025
0.0119124
0.0100919
0.00833237
0.00687147
0.00554748
0.00452158
0.00361936
0.0029593
0.00239288
0.0019964
0.00166386
0.00143531
0.00124517
0.00111288
0.00100112
0.000921279
0.000849312
0.00079555
0.00074016
0.000698396
0.000653326
0.000621208
0.000588141
0.000567449
0.000547803
0.000539911
0.000534598
0.000540629
0.000550583
0.000571826
0.000598419
0.000636507
0.000681619
0.000738369
0.000804036
0.000880945
0.000968619
0.00106607
0.00117563
0.00129194
0.0014206
0.00155119
0.00169269
0.00182951
0.00197374
0.00210542
0.00223887
0.00235156
0.00245872
0.00253786
0.00260346
0.00263613
0.00264786
0.00262541
0.00257665
0.00249678
0.00238854
0.00225646
0.00209795
0.00192606
0.00173357
0.0015396
0.00133396
0.00113805
0.000941045
0.00076238
0.000593166
0.000446955
0.000318979
0.000213889
0.000134681
7.35354e-05
4.6625e-05
4.4975e-05
0.000115091
0.000234815
0.000510649
0.000879615
0.0015262
0.00231093
0.00348106
0.00481032
0.00655397
0.00845199
0.0106909
0.0130299
0.0155318
0.0179565
0.0202577
0.022147
0.0236293
0.0243996
0.0244967
0.0245497
0.0192746
0.0190909
0.0188137
0.017845
0.0161386
0.0143967
0.0122588
0.0104473
0.00856939
0.007114
0.00569986
0.00467711
0.00370848
0.0030501
0.00244125
0.00204559
0.00169083
0.0014627
0.00126214
0.00113007
0.00101215
0.000932418
0.000854036
0.000800301
0.000735789
0.000694043
0.000639772
0.000607667
0.000567059
0.000546376
0.000520666
0.000512777
0.000502497
0.000508525
0.000514299
0.000535533
0.000558632
0.000596705
0.000639181
0.000695909
0.000760228
0.000837106
0.000925308
0.00102272
0.00113527
0.00125153
0.00138606
0.00151659
0.00166687
0.00180364
0.00195912
0.00209075
0.00223692
0.00234957
0.00246945
0.00254856
0.00262513
0.00265779
0.00267702
0.00265458
0.00260858
0.00252874
0.00241799
0.00228596
0.00212011
0.00194829
0.00174504
0.00155115
0.00133346
0.00113763
0.000929689
0.000751096
0.000574267
0.000428115
0.000297555
0.000192507
0.000115797
5.46995e-05
3.3139e-05
3.15863e-05
0.000115297
0.000235019
0.000547883
0.000916305
0.00164259
0.00242526
0.00372078
0.00504524
0.00693386
0.00882354
0.0111946
0.0135213
0.0161228
0.0185317
0.0208725
0.0227666
0.0241936
0.024978
0.0249557
0.0250084
0.0198127
0.0196219
0.0193478
0.0183496
0.0166538
0.0148533
0.0127208
0.0108311
0.00894839
0.00740475
0.00598702
0.00487712
0.0039055
0.00317444
0.00256195
0.00211512
0.00175793
0.00149858
0.00129681
0.00114687
0.00102794
0.000936277
0.000856481
0.000791899
0.000725358
0.000673386
0.000618422
0.000578743
0.000537565
0.000511599
0.000485429
0.000473611
0.000462949
0.000465435
0.000470881
0.000488237
0.000511055
0.000544625
0.000586879
0.000638705
0.000702894
0.000775148
0.000863356
0.000957392
0.00107013
0.00118529
0.00132022
0.00145273
0.00160363
0.0017458
0.0019021
0.00204227
0.00218938
0.0023128
0.00243363
0.00252426
0.00260165
0.00264483
0.00266464
0.00265005
0.00260429
0.00252845
0.00241755
0.00228532
0.00211897
0.00194335
0.00173935
0.00153961
0.00132107
0.00111948
0.000910773
0.000728811
0.000551461
0.000406292
0.000275583
0.000177186
0.000100222
5.24679e-05
3.12783e-05
5.73747e-05
0.000142863
0.000317864
0.000635292
0.00109525
0.00183121
0.00273398
0.00404024
0.00548723
0.0073814
0.00936188
0.0117351
0.0140955
0.0166881
0.0190756
0.0213969
0.0232383
0.0246555
0.0254113
0.0253865
0.0254352
0.0203936
0.0201953
0.0199245
0.0188945
0.0172101
0.0153464
0.0132267
0.0112455
0.00937328
0.00772171
0.00631135
0.00509592
0.00412901
0.00331066
0.00270091
0.00219219
0.00183639
0.00153854
0.00133738
0.00116458
0.00104585
0.000938335
0.000858581
0.000780125
0.000713616
0.000649742
0.000594805
0.00054631
0.000505152
0.000473039
0.000446881
0.000430491
0.000419834
0.000418198
0.000423642
0.000436485
0.000459292
0.000487625
0.000529859
0.000575982
0.000640141
0.000707019
0.000795185
0.0008853
0.000997984
0.00111187
0.00124673
0.00138155
0.00153238
0.00168084
0.00183706
0.00198719
0.00213423
0.0022702
0.00239097
0.00249502
0.00257237
0.0026278
0.0026476
0.00264215
0.00259641
0.00252522
0.00241438
0.00228191
0.00211563
0.0019356
0.00173169
0.00152513
0.0013067
0.00109839
0.00088979
0.0007039
0.000526635
0.000382602
0.000251955
0.000161292
8.43663e-05
5.37365e-05
3.25502e-05
9.42339e-05
0.000179318
0.000423115
0.000738903
0.00131057
0.0020425
0.00309069
0.00438964
0.00598458
0.00786797
0.00995913
0.0123185
0.0147213
0.0172981
0.0196568
0.0219631
0.0237478
0.0251543
0.0258792
0.0258518
0.0258961
0.021021
0.0208145
0.0205473
0.0194828
0.0178109
0.0158789
0.013773
0.0116929
0.0098321
0.00806398
0.00666157
0.00533219
0.00437037
0.00345776
0.00285096
0.0022754
0.00192112
0.0015817
0.00138119
0.0011837
0.0010652
0.000940556
0.00086085
0.000767412
0.000700936
0.000624212
0.000569302
0.000511289
0.000470152
0.0004314
0.000405255
0.000383928
0.000373277
0.00036719
0.000372631
0.000380601
0.000403397
0.000426074
0.000468286
0.000508252
0.000572378
0.00063345
0.000721571
0.000807452
0.000920078
0.00103258
0.00116738
0.00130468
0.00145543
0.00161069
0.00176683
0.00192771
0.00207468
0.00222419
0.0023449
0.00246344
0.00254075
0.00260941
0.0026292
0.00263361
0.0025879
0.00252174
0.00241095
0.00227822
0.00211203
0.00192722
0.00172342
0.00150951
0.00129118
0.00107563
0.000867131
0.000677
0.000499825
0.000357021
0.000226441
0.00014413
6.72443e-05
5.51063e-05
3.39236e-05
0.000134036
0.000218684
0.000536769
0.000850786
0.00154308
0.00227067
0.00347587
0.00476695
0.00652164
0.00839339
0.0106041
0.0129484
0.0153969
0.0179568
0.0202844
0.0225745
0.0242979
0.0256929
0.0263845
0.0263543
0.0263938
0.0216513
0.021443
0.0210082
0.0199656
0.018364
0.0164324
0.0143599
0.0122516
0.0103491
0.00854026
0.00706446
0.00569371
0.00465144
0.00370402
0.00302571
0.00242456
0.00201731
0.00166102
0.00142675
0.00121833
0.00107909
0.000946204
0.000851716
0.000751416
0.000673437
0.000591726
0.00052939
0.000467683
0.00042196
0.000380632
0.000351774
0.000328528
0.000315717
0.000307896
0.000310536
0.000316601
0.000335167
0.000355629
0.000391978
0.000429527
0.000486563
0.00054535
0.000626077
0.000710275
0.000816415
0.000928346
0.00105879
0.00119702
0.00134652
0.00150437
0.00166281
0.00182784
0.00198048
0.00213523
0.0022642
0.00238835
0.00247523
0.00254903
0.00257822
0.00258647
0.00254864
0.00248447
0.00237917
0.00224638
0.00208312
0.00189652
0.00169373
0.00147702
0.00125912
0.00104082
0.000833929
0.00064221
0.000469599
0.000327324
0.000205614
0.000126592
6.4249e-05
6.06528e-05
6.98563e-05
0.00018747
0.000332372
0.000681694
0.0010923
0.00183219
0.00267805
0.00394236
0.0053381
0.00714985
0.0090798
0.0113294
0.013666
0.0161223
0.0185988
0.0209
0.0230495
0.0247244
0.0260134
0.0266682
0.026835
0.0268723
0.022361
0.0221536
0.0217197
0.0206848
0.0190144
0.0170982
0.0149784
0.0128863
0.0108869
0.00909111
0.00747576
0.00611421
0.00493174
0.00399017
0.00319785
0.00259996
0.00211051
0.00175569
0.00146723
0.00125931
0.00108471
0.000951909
0.000831215
0.000730949
0.000633483
0.00055182
0.00047667
0.000414999
0.000361668
0.000320364
0.000287187
0.000263956
0.000247721
0.000239904
0.00023787
0.000243932
0.000255189
0.000275639
0.000301726
0.000339252
0.000383876
0.000442628
0.000510515
0.000594663
0.000689786
0.000801649
0.000925152
0.00106329
0.00121165
0.0013694
0.00153327
0.0016982
0.00186239
0.00201705
0.00216206
0.00228614
0.00239102
0.00246477
0.00251101
0.00251926
0.00249493
0.0024308
0.00233382
0.00220112
0.00204082
0.00185433
0.00165054
0.00143396
0.00121386
0.000995687
0.00078888
0.000597276
0.000430487
0.000288297
0.000180723
0.000101748
6.7338e-05
6.37432e-05
0.000126821
0.000244015
0.00048916
0.000836542
0.00140391
0.00213863
0.00317746
0.00443196
0.00601314
0.00781049
0.00986988
0.0121017
0.0144645
0.0169013
0.0192939
0.0215774
0.0236056
0.0252685
0.0265184
0.0271682
0.0273353
0.027372
0.0232364
0.0230293
0.022701
0.0216496
0.0198513
0.0179373
0.0156082
0.0135307
0.0113496
0.00956451
0.00779137
0.00643631
0.00512176
0.00418396
0.00329568
0.00269932
0.00215214
0.00179788
0.00147775
0.00126997
0.00107555
0.000942751
0.000803085
0.000702848
0.000584668
0.000503038
0.000413332
0.000351703
0.000290674
0.000249413
0.000212447
0.00018925
0.000170049
0.000162252
0.000155374
0.000161435
0.000164306
0.000184728
0.000198636
0.000236107
0.000265961
0.000324634
0.000377549
0.000461591
0.000544561
0.000656306
0.000773448
0.000911463
0.00106145
0.00121909
0.00139339
0.00155822
0.00174076
0.00189533
0.00206395
0.00218798
0.00231783
0.00239157
0.00245975
0.00246804
0.00245884
0.00239478
0.00230393
0.00217133
0.00200821
0.00182184
0.00160879
0.00139234
0.00116096
0.000942924
0.000728213
0.000536746
0.000370519
0.000228457
0.000133564
5.47043e-05
4.35909e-05
4.00285e-05
0.000135771
0.000252844
0.000559801
0.000906251
0.00159039
0.0023221
0.00354444
0.00479211
0.00659144
0.00837668
0.0106254
0.0128404
0.0153208
0.0177368
0.0201584
0.0224254
0.0244041
0.0260622
0.0272274
0.0278867
0.0278889
0.0279257
0.0240857
0.0238688
0.0235454
0.022458
0.0206768
0.0186927
0.0163829
0.0141951
0.0120271
0.0100995
0.00833583
0.00682477
0.00551653
0.00443418
0.00354809
0.00283797
0.00229061
0.00185783
0.00153702
0.00127915
0.00108362
0.000918257
0.000777239
0.000655067
0.000536084
0.000443417
0.000353774
0.000292856
0.00023187
0.000199261
0.00016232
0.000150401
0.000131213
0.000131942
0.000125069
0.000132595
0.000135465
0.000147906
0.000161804
0.000181803
0.000211637
0.000245587
0.000298464
0.000354524
0.000437435
0.000522807
0.000639867
0.000757816
0.000907702
0.00105509
0.00122927
0.00139521
0.00157762
0.0017439
0.00191241
0.00205582
0.00218558
0.00228202
0.00235016
0.00237974
0.00237056
0.00232253
0.00223175
0.00210801
0.00194501
0.00176098
0.00154807
0.00133059
0.00109937
0.000881932
0.00066737
0.000483751
0.00031764
0.000195555
0.000100728
5.7575e-05
4.5092e-05
9.69736e-05
0.000193123
0.000402109
0.000710725
0.0012009
0.00188611
0.00280468
0.00402594
0.00546484
0.00725562
0.00918509
0.0114184
0.0136896
0.0161521
0.0185249
0.0209253
0.0230762
0.0250387
0.026588
0.0277424
0.0283674
0.0283669
0.028409
0.0250028
0.0247754
0.0244513
0.0233311
0.0215681
0.0195085
0.0172195
0.0149124
0.0127621
0.0106774
0.00892673
0.00724424
0.00594472
0.00470437
0.00382349
0.00298818
0.00244341
0.00192331
0.00160345
0.00128889
0.00109352
0.000890617
0.000749586
0.000602517
0.000483621
0.000379036
0.000289461
0.00022931
0.00016837
0.000145105
0.000108192
0.000108449
8.92758e-05
9.92119e-05
9.2344e-05
0.000101454
0.000104321
0.000108143
0.00012203
0.000123164
0.000152975
0.000160228
0.000213066
0.000238908
0.000321757
0.000378649
0.000495622
0.000591902
0.000741675
0.00087799
0.00105205
0.00121919
0.00140146
0.00158038
0.00174876
0.00191311
0.00204277
0.00216373
0.00223182
0.0022844
0.00227522
0.00224452
0.0021538
0.00203964
0.00187676
0.00169525
0.0014825
0.00126392
0.00103286
0.00081607
0.00060167
0.000426524
0.000260538
0.000160026
6.52703e-05
6.0675e-05
4.82012e-05
0.000163134
0.000258942
0.000572536
0.00087928
0.00153017
0.00221031
0.00333573
0.00454723
0.00619675
0.00797283
0.01006
0.0122747
0.0146074
0.017049
0.0193737
0.0217534
0.023779
0.0257239
0.0271559
0.0282984
0.0288801
0.0288831
0.0289308
0.0258792
0.0256515
0.0250775
0.0239793
0.0223388
0.0202984
0.0180862
0.0157758
0.0135731
0.0114713
0.00959808
0.00789228
0.00644197
0.00517778
0.00414738
0.00329105
0.00262025
0.0020835
0.00167214
0.00134506
0.00109003
0.000877799
0.000703028
0.000550109
0.000420294
0.000313493
0.000229119
0.000169156
0.000125174
0.000103716
8.98332e-05
9.24265e-05
9.53064e-05
0.000107002
0.00011473
0.000124138
0.000129451
0.000131617
0.000133732
0.000131246
0.000135923
0.000138046
0.000155887
0.000175916
0.000219257
0.000270647
0.000349692
0.000441751
0.000560759
0.00069486
0.000849312
0.00101658
0.0011921
0.00137333
0.00154701
0.00171527
0.00185938
0.00198496
0.00207247
0.00212943
0.00214034
0.00211298
0.0020398
0.00192755
0.00177836
0.00159745
0.0013956
0.00117695
0.000957204
0.000740678
0.00054259
0.000369186
0.000229305
0.000132998
7.8476e-05
8.12804e-05
0.000130462
0.000260239
0.000463801
0.000800775
0.00127183
0.00195378
0.00283391
0.00399388
0.00538296
0.00706213
0.00893599
0.0110382
0.0132474
0.0155748
0.0179051
0.0202033
0.0223867
0.0243709
0.0260995
0.0274872
0.0284968
0.0290567
0.0293179
0.0293656
0.0270312
0.0268049
0.0264308
0.0253257
0.0234777
0.021454
0.0190048
0.0167177
0.0143106
0.0122255
0.0101408
0.00844602
0.00679224
0.00553442
0.00433886
0.00348546
0.00269927
0.00216343
0.00167822
0.00135116
0.00104889
0.000836487
0.000628117
0.000475236
0.000327471
0.000220764
0.000144886