/*--------------------------------*- C++ -*----------------------------------*\
| =========                 |                                                 |
| \\      /  F ield         | OpenFOAM: The Open Source CFD Toolbox           |
|  \\    /   O peration     | Version:  v2106                                 |
|   \\  /    A nd           | Website:  www.openfoam.com                      |
|    \\/     M anipulation  |                                                 |
\*---------------------------------------------------------------------------*/
FoamFile
{
    version     2.0;
    format      ascii;
    arch        "LSB;label=32;scalar=64";
    class       volScalarField;
    location    "0";
    object      expGpCoeffs29;
}
// * * * * * * * * * * * * * * * * * * * * * * * * * * * * * * * * * * * * * //

dimensions      [0 0 0 0 0 0 0];

internalField   nonuniform List<scalar> 
8000
(
0.00676478
0.00684951
0.00681576
0.00654075
0.00576466
0.00455353
0.0032022
0.00180044
0.00103564
0.000918736
0.00176125
0.00356079
0.00601112
0.00906429
0.0120816
0.0150339
0.0173837
0.019138
0.020199
0.0205681
0.0204878
0.0199592
0.0192001
0.0182151
0.0170682
0.0157516
0.0143032
0.0127288
0.0111046
0.00943869
0.00781981
0.00625583
0.00482643
0.00353797
0.00244625
0.00155496
0.000885683
0.000438822
0.000198306
0.000161274
0.000278486
0.000544544
0.000888605
0.00130403
0.00171462
0.00211401
0.00243805
0.00268214
0.00280892
0.00281662
0.00270352
0.00247112
0.00215422
0.0017573
0.00134434
0.000921836
0.000568906
0.000292596
0.000169469
0.000205497
0.000457238
0.00092818
0.00164152
0.00259742
0.00377939
0.00518406
0.00675731
0.00849266
0.0103079
0.0121946
0.0140572
0.0158868
0.0175907
0.0191611
0.0205249
0.0216767
0.0225638
0.0231972
0.0234717
0.0233893
0.0227248
0.021484
0.0195317
0.0168714
0.0138086
0.0103443
0.00714941
0.00426048
0.00222257
0.00106654
0.000829675
0.00149131
0.00252786
0.00390729
0.00502211
0.00578736
0.00613246
0.00605244
0.00587289
0.00569433
0.00675795
0.00684267
0.00685136
0.00657683
0.00580476
0.00459446
0.00317987
0.00177675
0.000957784
0.000838398
0.00168563
0.00348365
0.00598313
0.00903648
0.0121131
0.0150668
0.0174446
0.0192004
0.0202477
0.0206174
0.020511
0.0199827
0.0192137
0.0182288
0.0170813
0.0157648
0.0143107
0.0127365
0.0111043
0.00943856
0.00781172
0.00624794
0.00481211
0.00352382
0.00242839
0.00153721
0.000867607
0.000420803
0.000183291
0.000146263
0.000269065
0.00053509
0.00088602
0.00130139
0.00171855
0.00211789
0.00244669
0.00269074
0.00281937
0.00282707
0.00271243
0.00248006
0.00215855
0.00176167
0.00134203
0.000919578
0.00055938
0.000283105
0.000153783
0.000189807
0.000437872
0.000908754
0.00162186
0.00257764
0.003763
0.00516749
0.00674722
0.00848235
0.010306
0.0121925
0.0140639
0.0158933
0.0176051
0.0191753
0.0205445
0.0216961
0.0225863
0.0232195
0.0235072
0.0234246
0.0227828
0.0215412
0.0195875
0.0169258
0.0138153
0.0103501
0.00709246
0.00420414
0.00213592
0.000981878
0.00076762
0.00143139
0.00253256
0.00391242
0.00506897
0.0058331
0.00615486
0.00607455
0.00585847
0.00567995
0.00675059
0.00683528
0.0068898
0.0066158
0.00584807
0.00463866
0.00315576
0.00175116
0.000873715
0.000751646
0.00160397
0.00340034
0.00595291
0.00900644
0.0121471
0.0151023
0.0175105
0.0192677
0.0203003
0.0206707
0.0205362
0.0200081
0.0192283
0.0182436
0.0170954
0.0157791
0.0143188
0.0127448
0.0111039
0.00943842
0.00780298
0.00623942
0.00479665
0.00350854
0.0024091
0.00151805
0.000848086
0.000401344
0.000167077
0.000130055
0.000258892
0.00052488
0.000883228
0.00129854
0.0017228
0.00212208
0.00245602
0.00270004
0.00283065
0.00283835
0.00272205
0.00248971
0.00216322
0.0017664
0.00133953
0.000917139
0.000549094
0.000272857
0.000136845
0.000172864
0.000416959
0.000887776
0.00160063
0.00255627
0.0037453
0.0051496
0.00673633
0.00847122
0.0103039
0.0121902
0.0140712
0.0159003
0.0176206
0.0191906
0.0205656
0.0217171
0.0226105
0.0232436
0.0235456
0.0234627
0.0228455
0.021603
0.0196477
0.0169845
0.0138226
0.0103563
0.00703096
0.0041433
0.00204235
0.000890457
0.00070061
0.0013667
0.00253764
0.00391797
0.00511956
0.00588249
0.00617906
0.00609843
0.0058429
0.00566442
0.00674263
0.00682731
0.00693131
0.00665788
0.00589483
0.00468638
0.00312973
0.00172354
0.000782935
0.000657967
0.00151579
0.00331039
0.00592027
0.00897401
0.0121837
0.0151407
0.0175815
0.0193405
0.0203571
0.0207283
0.0205633
0.0200355
0.0192441
0.0182595
0.0171107
0.0157946
0.0143276
0.0127538
0.0111035
0.00943827
0.00779355
0.00623021
0.00477996
0.00349203
0.00238827
0.00149736
0.000827008
0.000380332
0.000149569
0.000112552
0.000247907
0.000513855
0.000880214
0.00129547
0.00172738
0.0021266
0.00246609
0.00271007
0.00284283
0.00285053
0.00273244
0.00250013
0.00216826
0.0017715
0.00133684
0.000914505
0.000537986
0.00026179
0.000118554
0.000154568
0.000394377
0.000865124
0.0015777
0.0025332
0.0037262
0.00513028
0.00672456
0.0084592
0.0103017
0.0121877
0.0140791
0.0159079
0.0176374
0.0192072
0.0205884
0.0217397
0.0226366
0.0232696
0.0235871
0.0235038
0.0229131
0.0216698
0.0197128
0.0170479
0.0138305
0.010363
0.00696456
0.0040776
0.00194131
0.000791736
0.000628249
0.00129684
0.00254312
0.00392395
0.0051742
0.00593583
0.00620519
0.00612421
0.00582609
0.00564766
0.00673404
0.00681869
0.00697614
0.0067012
0.00594533
0.00473792
0.00310161
0.0016937
0.000684906
0.000556809
0.00142057
0.00321326
0.00588502
0.00893898
0.0122233
0.0151821
0.0176583
0.019419
0.0204184
0.0207904
0.0205926
0.020065
0.0192611
0.0182768
0.0171272
0.0158113
0.0143371
0.0127636
0.0111031
0.00943811
0.00778336
0.00622028
0.00476193
0.00347421
0.00236579
0.00147501
0.000804246
0.000357643
0.000130663
9.3652e-05
0.000236045
0.00050195
0.000876959
0.00129214
0.00173233
0.00213149
0.00247697
0.00272091
0.00285599
0.00286368
0.00274366
0.00251139
0.0021737
0.001777
0.00133393
0.000911662
0.000525992
0.00024984
9.88038e-05
0.000134811
0.000369991
0.000840663
0.00155294
0.00250829
0.00370556
0.00510942
0.00671186
0.00844622
0.0102993
0.012185
0.0140876
0.0159161
0.0176555
0.019225
0.020613
0.0217641
0.0226648
0.0232977
0.0236318
0.0235483
0.0229861
0.0217418
0.0197831
0.0171164
0.013839
0.0103703
0.00689285
0.00400666
0.0018322
0.000685134
0.000550112
0.0012214
0.00254905
0.00393042
0.0052332
0.00599342
0.00622934
0.00615206
0.00580794
0.00562955
0.0067246
0.00681266
0.0069845
0.00673496
0.00599241
0.00480666
0.00308353
0.00169044
0.000581987
0.000454171
0.00132182
0.00310902
0.00584343
0.00888502
0.0122621
0.0152214
0.0177412
0.0195038
0.0204846
0.0208575
0.0206242
0.020097
0.0192795
0.0182954
0.0171415
0.0158256
0.0143444
0.0127707
0.0111004
0.00943537
0.00777095
0.00620804
0.00474189
0.00345469
0.00234177
0.00145189
0.00078074
0.000335413
0.000112095
7.66502e-05
0.000225842
0.000493457
0.000876817
0.00129363
0.0017418
0.00214231
0.00249357
0.00273836
0.00287567
0.00288357
0.00276168
0.00252896
0.00218566
0.00178786
0.00133665
0.000912762
0.000518254
0.000240152
8.15812e-05
0.000115492
0.000346192
0.000814826
0.0015268
0.0024803
0.00368169
0.00508399
0.00669429
0.00842741
0.0102907
0.0121755
0.0140889
0.0159168
0.0176658
0.0192349
0.0206294
0.0217802
0.0226953
0.023328
0.0236801
0.0235963
0.023065
0.0218196
0.0198589
0.0171904
0.0138429
0.010375
0.00680505
0.00393075
0.00171935
0.000575743
0.000472617
0.0011425
0.00257401
0.00394235
0.00528628
0.006033
0.0062303
0.00613412
0.00578552
0.00560508
0.00671407
0.00681275
0.00698456
0.00677141
0.00602951
0.00488657
0.00316503
0.00176704
0.000660419
0.000456193
0.00132437
0.00300347
0.00573628
0.00870222
0.0120761
0.0150313
0.0175593
0.0193899
0.0203646
0.0208122
0.0205677
0.0200809
0.0192564
0.0182826
0.017125
0.0158063
0.0143254
0.012747
0.0110771
0.00940861
0.00774451
0.00618089
0.00471502
0.00343103
0.00231832
0.00143631
0.000765281
0.000332413
0.000109137
8.98062e-05
0.00023897
0.000524572
0.000907861
0.00134217
0.00179026
0.0022052
0.00255639
0.0028103
0.00294759
0.00295774
0.00283587
0.00259799
0.00225475
0.00184495
0.00139382
0.000952573
0.000558139
0.00025944
0.000100899
0.000113294
0.000343951
0.000792259
0.0015041
0.00244005
0.00364121
0.00502967
0.00663967
0.00836288
0.0102259
0.0121044
0.0140173
0.015842
0.0175907
0.0191588
0.0205531
0.021702
0.0226291
0.0232476
0.0236149
0.0234829
0.0229656
0.0216451
0.01969
0.0169772
0.0136209
0.0101983
0.00663123
0.00386082
0.00165027
0.000610776
0.000506585
0.00122257
0.0026524
0.00399598
0.00533898
0.00603402
0.00623134
0.006104
0.00575562
0.00556817
0.0067027
0.00681285
0.00698463
0.00681077
0.00606957
0.00497287
0.00325303
0.00184976
0.000745114
0.000458377
0.00132712
0.0028895
0.00562058
0.00850483
0.0118753
0.0148259
0.0173503
0.0192407
0.020213
0.0207351
0.0204897
0.0200499
0.0192254
0.0182646
0.0171071
0.0157855
0.0143049
0.0127215
0.0110519
0.00937972
0.00771596
0.00615157
0.00468599
0.00340548
0.002293
0.00141948
0.000748587
0.000329174
0.000105944
0.000104013
0.000253146
0.000558172
0.000941383
0.00139458
0.00184258
0.00227311
0.00262424
0.00288799
0.00302525
0.00303783
0.00291598
0.00267254
0.00232937
0.00190659
0.00145556
0.000995563
0.000601208
0.000280268
0.000121759
0.000110921
0.000341531
0.00076789
0.00147959
0.00239659
0.00359751
0.00497101
0.00658068
0.00829319
0.0101558
0.0120275
0.0139401
0.0157613
0.0175096
0.0190766
0.0204706
0.0216176
0.0225445
0.0231449
0.0235126
0.0233295
0.0228139
0.021427
0.0194753
0.0167333
0.0133812
0.0100074
0.00644353
0.00378532
0.00157569
0.000648606
0.000543266
0.00130903
0.00273705
0.0040539
0.0053959
0.00603513
0.00623246
0.00607148
0.00572333
0.00552831
0.00669042
0.00681295
0.00698471
0.00685328
0.00611283
0.00506605
0.00334806
0.00193909
0.000836571
0.000460735
0.00133009
0.00276642
0.00549565
0.00829168
0.0116584
0.0146042
0.0171245
0.0190796
0.0200492
0.0206517
0.0204055
0.0200164
0.0191919
0.018245
0.0170879
0.0157631
0.0142828
0.0126939
0.0110247
0.00934853
0.00768512
0.00611991
0.00465465
0.0033779
0.00226565
0.0014013
0.000730561
0.000325677
0.000102495
0.000119353
0.000268454
0.000594454
0.000977581
0.00145117
0.00189907
0.00234645
0.00269749
0.00297188
0.00310912
0.00312431
0.00300249
0.00275303
0.00240994
0.00197316
0.00152223
0.00104198
0.000647717
0.000302759
0.000144285
0.000108359
0.000338918
0.000741575
0.00145311
0.00234966
0.00355032
0.00490767
0.00651698
0.00821793
0.0100801
0.0119445
0.0138567
0.0156741
0.017422
0.0189879
0.0203815
0.0215265
0.0224531
0.023034
0.0234021
0.0231639
0.02265
0.0211915
0.0192434
0.01647
0.0131224
0.00980136
0.00624084
0.00370378
0.00149515
0.000689456
0.000582875
0.00140239
0.00282846
0.00411644
0.00545736
0.00603633
0.00623368
0.00603637
0.00568846
0.00548526
0.00667716
0.00681307
0.00698479
0.00689918
0.00615955
0.00516668
0.00345068
0.00203555
0.00093533
0.000463281
0.00133329
0.00263351
0.00536073
0.00806152
0.0114242
0.0143647
0.0168808
0.0189056
0.0198725
0.0205617
0.0203146
0.0199802
0.0191558
0.018224
0.0170671
0.0157389
0.0142589
0.0126641
0.0109953
0.00931484
0.00765183
0.00608572
0.00462081
0.00334811
0.00223613
0.00138168
0.000711095
0.0003219
9.8771e-05
0.000135918
0.000284984
0.000633633
0.00101667
0.00151229
0.00196008
0.00242564
0.0027766
0.00306247
0.00319967
0.0032177
0.00309591
0.00283996
0.00249694
0.00204504
0.00159422
0.00109211
0.000697938
0.000327046
0.000168609
0.000105591
0.000336096
0.00071316
0.00142453
0.00229898
0.00349936
0.00483926
0.0064482
0.00813667
0.00999842
0.0118549
0.0137667
0.0155799
0.0173274
0.018892
0.0202853
0.021428
0.0223545
0.0229142
0.0232827
0.022985
0.0224731
0.0209371
0.0189931
0.0161856
0.0128429
0.00957884
0.00602197
0.00361574
0.00140817
0.000733568
0.000625646
0.00150321
0.00292716
0.00418398
0.00552373
0.00603762
0.00623499
0.00599844
0.00565081
0.00543878
0.00666284
0.00681319
0.00698488
0.00694874
0.00620999
0.00527533
0.00356149
0.00213971
0.00104197
0.00046603
0.00133676
0.00249
0.00521505
0.00781298
0.0111713
0.0141062
0.0166175
0.0187178
0.0196816
0.0204645
0.0202164
0.0199412
0.0191168
0.0182012
0.0170446
0.0157127
0.0142331
0.0126319
0.0109635
0.00927847
0.00761588
0.0060488
0.00458427
0.00331594
0.00220424
0.00136049
0.000690075
0.000317821
9.47496e-05
0.000153806
0.000302834
0.000675941
0.00105888
0.00157828
0.00202596
0.00251115
0.00286203
0.00316029
0.00329746
0.00331855
0.00319679
0.00293382
0.00259089
0.00212266
0.00167195
0.00114624
0.00075217
0.000353272
0.000194875
0.000102603
0.000333049
0.000682476
0.00139366
0.00224426
0.00344433
0.0047654
0.00637392
0.00804892
0.00991019
0.0117582
0.0136694
0.0154782
0.0172253
0.0187885
0.0201815
0.0213217
0.022248
0.0227849
0.0231539
0.0227919
0.0222821
0.0206625
0.0187227
0.0158784
0.012541
0.00933856
0.00578563
0.00352067
0.00131426
0.000781202
0.000671832
0.00161208
0.00303375
0.0042569
0.0055954
0.00603901
0.0062364
0.0059575
0.00561015
0.00538859
0.00664738
0.00681332
0.00698497
0.00700226
0.00626446
0.00539267
0.00368115
0.00225219
0.00115713
0.000468999
0.0013405
0.00233502
0.00505773
0.00754459
0.0108982
0.013827
0.0163333
0.0185149
0.0194754
0.0203596
0.0201103
0.019899
0.0190746
0.0181766
0.0170204
0.0156844
0.0142053
0.0125972
0.0109293
0.00923919
0.00757706
0.00600894
0.00454481
0.0032812
0.00216981
0.00133761
0.000667377
0.000313417
9.04072e-05
0.000173123
0.000322109
0.000721626
0.00110446
0.00164954
0.0020971
0.00260349
0.00295427
0.00326593
0.00340306
0.00342744
0.00330572
0.00303518
0.00269235
0.00220648
0.0017559
0.0012047
0.000810731
0.000381592
0.000223239
9.93764e-05
0.000329758
0.000649341
0.00136033
0.00218517
0.0033849
0.00468564
0.00629372
0.00795416
0.00981492
0.0116537
0.0135644
0.0153684
0.017115
0.0186768
0.0200694
0.0212069
0.0221329
0.0226453
0.0230147
0.0225833
0.0220758
0.0203659
0.0184308
0.0155468
0.0122151
0.00907909
0.00553041
0.003418
0.00121284
0.00083264
0.000721706
0.00172964
0.00314884
0.00433565
0.00567279
0.00604052
0.00623793
0.00591328
0.00556624
0.00533439
0.00663864
0.00681307
0.0069615
0.00699747
0.00634669
0.00550302
0.00389
0.00244219
0.00134237
0.000569565
0.0013469
0.0022256
0.00480481
0.00721724
0.0104867
0.0134072
0.0159429
0.0181691
0.0192112
0.0201637
0.0199785
0.0198178
0.0190156
0.0181325
0.0169723
0.0156337
0.0141554
0.0125427
0.0108772
0.00918385
0.00752633
0.00595765
0.00450057
0.00324037
0.00213857
0.00131446
0.000656155
0.000314918
0.000105653
0.000204763
0.000368413
0.000786189
0.00118335
0.00174619
0.00220631
0.00272734
0.00308745
0.00340836
0.00355037
0.00357706
0.00345498
0.00317921
0.00283055
0.00233252
0.00187092
0.00130211
0.000892743
0.000442681
0.00026563
0.000119887
0.000329552
0.000628405
0.00131799
0.00212487
0.00330374
0.00459024
0.00617914
0.00782932
0.00967354
0.0115058
0.0134033
0.0152038
0.016941
0.0185016
0.0198879
0.0210235
0.0219623
0.0224537
0.0227994
0.0223178
0.0217414
0.0199801
0.0179783
0.0150866
0.0117681
0.00868499
0.00525969
0.00325332
0.00118562
0.000918281
0.00086093
0.00192067
0.00330156
0.00447252
0.00570416
0.0060263
0.00616431
0.00581905
0.00550662
0.00526905
0.00663797
0.00681234
0.00693481
0.00697042
0.00644572
0.00560432
0.00421529
0.00277676
0.00167298
0.000909672
0.0013585
0.00223826
0.0043794
0.00678267
0.00976729
0.0126727
0.0152267
0.0174399
0.0187298
0.0196758
0.0197485
0.0195861
0.0189038
0.0180208
0.0168779
0.0155397
0.0140632
0.012451
0.0107919
0.00909906
0.00745448
0.0058863
0.00444965
0.00318986
0.00211633
0.00129248
0.000669788
0.00032866
0.000160744
0.000259822
0.000467788
0.00088543
0.00132606
0.00188871
0.00238697
0.00290784
0.00329631
0.00361712
0.00377396
0.00380064
0.00367745
0.00340176
0.00303532
0.00253744
0.00204238
0.00147376
0.00101768
0.000567765
0.00033421
0.000188513
0.000335811
0.000634569
0.00125994
0.00206656
0.00318318
0.00446926
0.00600123
0.00765088
0.00944628
0.0112779
0.0131368
0.0149368
0.0166469
0.018207
0.019575
0.0207102
0.0216096
0.0221013
0.0223042
0.0218262
0.0210065
0.019255
0.0171043
0.0142281
0.0110594
0.00799065
0.00497785
0.00297711
0.00134206
0.00107026
0.00121425
0.00226437
0.00352014
0.00468528
0.00568102
0.00600403
0.0060585
0.00571467
0.0054284
0.00519099
0.00663244
0.00680676
0.00695657
0.00699144
0.00659134
0.00575156
0.00456655
0.00313805
0.00202998
0.00127693
0.00137103
0.00225192
0.00392003
0.00631339
0.00899043
0.0118797
0.0144534
0.0166526
0.0182099
0.019149
0.0195001
0.019336
0.018783
0.0179001
0.0167759
0.0154383
0.0139636
0.012352
0.0106997
0.00900751
0.00737689
0.00580926
0.00439467
0.00313532
0.00209232
0.00126875
0.000684509
0.0003435
0.000220233
0.000319276
0.000575098
0.000992594
0.00148015
0.00204261
0.00258206
0.00310275
0.00352185
0.00384255
0.00401541
0.00404208
0.00391768
0.00364209
0.00325644
0.00275873
0.00222753
0.00165911
0.0011526
0.000702836
0.000408265
0.000262619
0.000342571
0.000641224
0.00119726
0.0020036
0.00305299
0.00433862
0.00580912
0.00745819
0.00920087
0.0110319
0.0128491
0.0146484
0.0163293
0.0178889
0.019237
0.0203719
0.0212287
0.0217207
0.0217694
0.0212954
0.020213
0.018472
0.0161606
0.0133011
0.0102942
0.00724087
0.0046735
0.00267884
0.00151098
0.00123437
0.00159577
0.00263551
0.00375618
0.00491502
0.00569184
0.00601659
0.00596527
0.00562312
0.00533741
0.00510017
0.00654932
0.00672347
0.00707214
0.00710856
0.00697033
0.0061408
0.00496519
0.00354812
0.00211606
0.00136439
0.000977242
0.00184774
0.00315975
0.00553556
0.00818069
0.0110531
0.0138588
0.016048
0.0179057
0.0188413
0.0194047
0.0192402
0.0187625
0.01788
0.0167477
0.0154105
0.0138973
0.0122864
0.010595
0.00890343
0.007242
0.00567496
0.0042474
0.00298852
0.0019579
0.00113464
0.000591519
0.000250638
0.000195221
0.000294227
0.000636963
0.0010543
0.00163555
0.0021978
0.00282293
0.00334342
0.00382575
0.00414632
0.00434873
0.00437539
0.00424116
0.00396568
0.00353168
0.00303417
0.00242329
0.00185507
0.00124936
0.000799766
0.0004004
0.000254808
0.000237659
0.0005362
0.00101304
0.00181908
0.00281284
0.00409799
0.00553717
0.00718562
0.00891794
0.0107482
0.01257
0.0143686
0.0160621
0.017621
0.018987
0.0201214
0.0209732
0.0214654
0.0214175
0.0209458
0.0196282
0.0178943
0.0153139
0.0124688
0.00935561
0.00632169
0.0039668
0.00198827
0.00129136
0.0010207
0.00182543
0.00285967
0.00415925
0.00530677
0.00592111
0.00623968
0.00590412
0.0055628
0.00513393
0.004897
0.00645857
0.00663298
0.00714488
0.00719947
0.0073693
0.00653169
0.00539579
0.00399112
0.0021816
0.00143101
0.000521028
0.00137976
0.00232226
0.00467876
0.00730924
0.0101636
0.0132554
0.0154341
0.0176305
0.0185625
0.0193421
0.0191772
0.018761
0.0178788
0.0167216
0.015385
0.013828
0.0122177
0.0104817
0.00879077
0.00709359
0.00552718
0.00408365
0.00282528
0.00180692
0.000983996
0.000485253
0.00014451
0.000163415
0.00026238
0.000700865
0.00111804
0.00180277
0.00236478
0.00308465
0.00360492
0.00415714
0.00447759
0.00471257
0.00473922
0.00459392
0.00431854
0.00383087
0.00333355
0.00263445
0.00206646
0.00135121
0.000901805
0.000387186
0.000241654
0.000118342
0.000416761
0.000807847
0.00161356
0.00254816
0.00383279
0.00524005
0.00688784
0.00861146
0.010441
0.0122703
0.0140682
0.0157776
0.0173359
0.0187232
0.0198571
0.0207265
0.0212188
0.0210897
0.0206205
0.0190524
0.017326
0.0144269
0.0115973
0.00833096
0.0053181
0.00318037
0.00121973
0.00102395
0.000760252
0.00205701
0.00308556
0.00459586
0.00573084
0.00614515
0.00647129
0.00582461
0.00546808
0.0049146
0.00467767
0.00629806
0.00650775
0.00701879
0.00722402
0.00739462
0.00679643
0.00568097
0.0043734
0.00253931
0.00161375
0.000651836
0.00112122
0.00201903
0.00398632
0.0065924
0.00926255
0.0123772
0.0146238
0.0168635
0.0179883
0.018798
0.018789
0.018368
0.0175544
0.0163636
0.0150629
0.0135032
0.0119296
0.0101908
0.00854401
0.00684474
0.00532977
0.00388558
0.00268579
0.00166879
0.00091106
0.000415969
0.000145625
0.000170298
0.000342202
0.000787948
0.00127653
0.00196902
0.00259567
0.0033226
0.00389496
0.00445238
0.00480689
0.00504431
0.00508279
0.00493668
0.00464861
0.00415696
0.00362238
0.00291671
0.00228897
0.0015655
0.0010376
0.000514238
0.00027619
0.000144671
0.000341717
0.000725976
0.00142648
0.0023561
0.00353644
0.00494066
0.00648946
0.0082117
0.0099516
0.0117808
0.013502
0.0152119
0.0167097
0.0180981
0.019183
0.0200902
0.020513
0.0203877
0.0197849
0.0181825
0.0163421
0.0134053
0.0106493
0.00738209
0.00469329
0.00260243
0.0010786
0.000936131
0.000988816
0.0023316
0.00340633
0.00491826
0.0058737
0.00626136
0.00635538
0.00571086
0.00524942
0.00469734
0.00444507
0.00612474
0.00637251
0.00688263
0.00725052
0.00742197
0.00708231
0.00597452
0.00478565
0.00296205
0.00182255
0.000865489
0.000863799
0.00175583
0.00325581
0.00584656
0.00829678
0.011393
0.0137201
0.0159455
0.0173015
0.0181038
0.0182871
0.0178643
0.0171397
0.0159495
0.0146904
0.0131315
0.0116005
0.00986255
0.00826707
0.00656861
0.00511342
0.00366991
0.00253824
0.00152172
0.000839819
0.000344962
0.000156524
0.000181185
0.000437964
0.000883499
0.00145518
0.00214734
0.00284922
0.00357582
0.00420878
0.00476595
0.0051601
0.00539741
0.00544966
0.00530362
0.00500075
0.00450934
0.00393139
0.00322604
0.00252877
0.00180564
0.00118637
0.000663263
0.00031757
0.000186114
0.000265196
0.000649273
0.00122738
0.00215657
0.0032156
0.00461916
0.00605284
0.00777427
0.00940991
0.0112382
0.0128703
0.0145794
0.0160069
0.0173946
0.0184225
0.0193293
0.0196615
0.0195398
0.0187742
0.0171826
0.0152089
0.0122897
0.00962462
0.00637652
0.00407639
0.00199826
0.000999627
0.000859006
0.00129483
0.00263064
0.00376247
0.00526552
0.00600275
0.00638685
0.00623021
0.00558802
0.0050133
0.00446274
0.00419391
0.00593758
0.00622649
0.00673561
0.00727913
0.0074515
0.00739101
0.00629151
0.0052308
0.00341854
0.00204801
0.0010962
0.000585829
0.00147161
0.00246698
0.00504117
0.00725389
0.0103302
0.0127442
0.0149541
0.0165599
0.0173542
0.0177451
0.0173203
0.0166919
0.0155023
0.0142882
0.0127301
0.0112452
0.0095081
0.00796802
0.00627043
0.00487979
0.00343703
0.00237891
0.00136291
0.000762891
0.000268287
0.000168293
0.000192941
0.000541372
0.000986678
0.0016481
0.00233991
0.00312302
0.00384924
0.00454767
0.00510455
0.00554152
0.0057787
0.00584581
0.00569985
0.00538102
0.00488986
0.00426506
0.00356008
0.0027877
0.00206494
0.00134703
0.000824186
0.000362254
0.000230865
0.000182566
0.000566446
0.00101239
0.0019411
0.00286915
0.00427198
0.00558136
0.0073019
0.00882497
0.0106523
0.0121882
0.0138964
0.015248
0.016635
0.0176012
0.0185076
0.0187421
0.0186243
0.0176827
0.0161028
0.0139851
0.011085
0.00851807
0.00529068
0.00341024
0.00134584
0.000914345
0.000775723
0.00162527
0.00295356
0.00414705
0.0056405
0.00614209
0.00652236
0.00609504
0.00545538
0.00475833
0.0042094
0.00392268
0.00571057
0.0060124
0.0064491
0.00703303
0.00730087
0.00734939
0.00655472
0.00555331
0.00399992
0.00254201
0.00154442
0.000829564
0.00135326
0.00213908
0.00421816
0.00632207
0.00905974
0.0114923
0.0136567
0.0153523
0.0162762
0.0167508
0.0164574
0.0158737
0.0147649
0.0135689
0.0121117
0.0106454
0.00901734
0.00749942
0.00591583
0.00455088
0.00321744
0.00218839
0.00126908
0.000701224
0.000285608
0.000220159
0.000304458
0.000688526
0.00117571
0.00187191
0.00259166
0.0034062
0.00415121
0.00487493
0.00544569
0.00589921
0.00614785
0.00622073
0.00608364
0.0057587
0.00527091
0.00462805
0.00391569
0.00311429
0.00236693
0.00161078
0.0010399
0.000532788
0.000325604
0.000227608
0.000506924
0.000901136
0.00169962
0.00257624
0.00383054
0.00509094
0.00665544
0.00813403
0.00981057
0.0113083
0.0128837
0.0142052
0.0154787
0.0164205
0.0172444
0.017434
0.0172196
0.016212
0.0146158
0.0124568
0.00977664
0.00726827
0.00451698
0.00281756
0.00124179
0.00104234
0.00113052
0.00214412
0.00336915
0.00458149
0.00576903
0.0061711
0.00633092
0.0058047
0.00515502
0.00443567
0.00393965
0.00364766
0.00538201
0.00568331
0.00613856
0.00671819
0.00723476
0.00727982
0.006912
0.00591997
0.00467219
0.00323223
0.00203131
0.00132864
0.0011811
0.0019635
0.00327551
0.00535967
0.00761235
0.010019
0.0121374
0.0138131
0.0149549
0.0154201
0.0153667
0.014782
0.0138501
0.0126548
0.0113457
0.00988023
0.00841626
0.00689925
0.00548834
0.0041242
0.00295956
0.00193112
0.00116654
0.00059902
0.000317401
0.000251991
0.000446845
0.000830683
0.00140569
0.00210147
0.00288923
0.00370328
0.00450011
0.0052234
0.00583263
0.00628588
0.00656047
0.00663331
0.00650798
0.00618324
0.00568878
0.00504631
0.00430272
0.0035018
0.00269182
0.00193612
0.00126531
0.000758495
0.000410722
0.000312784
0.000411662
0.000805638
0.00138971
0.00226581
0.00328276
0.00454242
0.00586198
0.00733969
0.00878158
0.0102784
0.0116475
0.0129683
0.0140716
0.0150129
0.0156516
0.0158431
0.0154465
0.0144517
0.0128242
0.0106886
0.00833872
0.00585583
0.00382608
0.0021408
0.00136345
0.00116078
0.00173205
0.0027311
0.00390237
0.00510086
0.00586772
0.00626785
0.0060636
0.00554518
0.00474925
0.00403496
0.00357997
0.00328854
0.00486487
0.00516581
0.00578828
0.00638306
0.0073866
0.00744141
0.00760221
0.00661973
0.00535676
0.00393496
0.0021627
0.0014626
0.00049797
0.00126712
0.00195828
0.00401445
0.00613884
0.008519
0.0108692
0.0125279
0.0139461
0.0144037
0.0144594
0.0138739
0.012977
0.0117828
0.0105638
0.00909967
0.00775102
0.00623541
0.00494972
0.00358688
0.00255558
0.00152818
0.000904035
0.000337184
0.000201799
0.000136661
0.000480764
0.000864515
0.00158662
0.00228206
0.00320701
0.0040206
0.00493494
0.0056578
0.00635448
0.00680748
0.00713032
0.00720316
0.00708057
0.00675605
0.00621644
0.00557439
0.00473951
0.00393908
0.00299696
0.00224165
0.00140544
0.000898769
0.000360962
0.000262822
0.000155647
0.000548999
0.000919142
0.00179421
0.00259701
0.00385535
0.00496823
0.00644446
0.00769515
0.00919052
0.0103924
0.0117119
0.0126985
0.0136389
0.0142586
0.0144517
0.0139844
0.0130006
0.0111864
0.00907241
0.00670574
0.00425177
0.00264329
0.000982806
0.00100819
0.000811643
0.00213457
0.00312439
0.00461239
0.00579204
0.00631566
0.00671202
0.0059301
0.00540789
0.00427453
0.0035577
0.00303846
0.00274897
0.00436892
0.00467285
0.00529222
0.00600948
0.0070055
0.0074341
0.00759512
0.00707186
0.00582551
0.0045733
0.00280849
0.00180052
0.000833277
0.000931751
0.00159684
0.00296427
0.00505812
0.00703925
0.00937858
0.0109819
0.0124004
0.01298
0.0130287
0.0126023
0.0116912
0.0106881
0.00946995
0.00822553
0.00687781
0.00559479
0.00431001
0.00317266
0.00214208
0.00131606
0.000692356
0.000291256
0.000155965
0.000216194
0.000560057
0.00103075
0.00175236
0.00250353
0.00342783
0.00427604
0.00518974
0.00593622
0.00663243
0.00710558
0.0074282
0.00752072
0.00739822
0.00709041
0.00655118
0.00591523
0.00508093
0.00426456
0.00332309
0.00251701
0.00168138
0.00107778
0.000540353
0.000292154
0.000185053
0.000374829
0.000744713
0.00137008
0.00217233
0.00314982
0.00426193
0.00544708
0.0066969
0.00791509
0.00911615
0.0101963
0.0111822
0.011941
0.0125698
0.0126604
0.0122011
0.0112344
0.00942615
0.00758775
0.00524169
0.00339314
0.00182182
0.000906341
0.000953994
0.00128967
0.00261005
0.00367838
0.00515672
0.00601454
0.00652305
0.00648356
0.00570706
0.00494904
0.00382493
0.00309558
0.00257923
0.00231887
0.00383336
0.00414054
0.0047563
0.00560608
0.00659397
0.00742621
0.00758745
0.00756008
0.00632629
0.00526177
0.00351318
0.00216542
0.00120611
0.000569611
0.00122698
0.00183661
0.00390893
0.00544855
0.00776284
0.00930059
0.0107012
0.011416
0.0114582
0.0112132
0.0103028
0.00950598
0.00828875
0.00728159
0.00593489
0.00490303
0.00361922
0.00272536
0.00169556
0.00108702
0.000463776
0.00024166
0.000106471
0.000302077
0.000645681
0.00121026
0.00193132
0.00274268
0.00366628
0.00455187
0.00546489
0.00623688
0.00693256
0.00742749
0.00774986
0.00786364
0.00774123
0.00745148
0.00691265
0.00628327
0.0054496
0.00461602
0.00367526
0.00281435
0.00197935
0.00127109
0.000734066
0.000323826
0.000216807
0.000186753
0.000556358
0.000912099
0.00171374
0.00238797
0.00349924
0.00437008
0.00561896
0.00653783
0.00773799
0.00855965
0.00954486
0.0101076
0.010736
0.0107098
0.0102587
0.0093139
0.00752598
0.00599774
0.00367621
0.00249649
0.000941969
0.000846384
0.00089547
0.00181432
0.0031235
0.00427848
0.00574299
0.00624439
0.00674701
0.00623686
0.00546621
0.00445355
0.00333944
0.00259821
0.00208333
0.00185444
0.0033258
0.00363255
0.00416201
0.00501228
0.00593532
0.00682748
0.00728504
0.00735487
0.00675919
0.00574299
0.00444625
0.00304581
0.00198752
0.00121345
0.00118906
0.00164147
0.00279176
0.00422088
0.00586819
0.00736679
0.00855853
0.00928887
0.00948562
0.00928226
0.00865718
0.0079005
0.00698372
0.00602275
0.00499019
0.00400721
0.00303278
0.00218623
0.00142746
0.000861042
0.000444178
0.000256545
0.000248807
0.00047025
0.00086259
0.00144479
0.00215004
0.0029724
0.00384029
0.00473246
0.00557938
0.00635576
0.00700266
0.00750143
0.00781194
0.0079297
0.00783936
0.00755328
0.00708318
0.00645549
0.00570712
0.00487078
0.00400317
0.00313232
0.0023273
0.00159945
0.00102274
0.000581681
0.000349328
0.000277124
0.000434019
0.000737813
0.00125285
0.00186845
0.00264569
0.00345565
0.00435794
0.00521878
0.00609707
0.0068686
0.00757127
0.00809606
0.00847982
0.00842793
0.00796931
0.00704625
0.00572272
0.0042844
0.0028259
0.00179759
0.00112371
0.00119168
0.00165686
0.00268039
0.00380239
0.00496217
0.00586871
0.00629433
0.00630005
0.00570353
0.004871
0.00382836
0.00288818
0.00215603
0.00171106
0.00148763
0.00248763
0.0027932
0.00327723
0.00412137
0.00539478
0.00627174
0.00749415
0.00757057
0.00762258
0.00663015
0.00543623
0.00405977
0.0024107
0.00164578
0.000625977
0.00106586
0.00134426
0.00274691
0.00397466
0.0054481
0.00660706
0.00732302
0.0076273
0.00742177
0.00698881
0.00623279
0.00561372
0.00465359
0.00395965
0.00297753
0.00233488
0.00148907
0.00102616
0.000460235
0.000282147
9.46787e-05
0.00025839
0.000479638
0.000977502
0.0015592
0.00231558
0.00313721
0.00402014
0.00491152
0.00575785
0.00653355
0.00718224
0.00768057
0.00800683
0.00812448
0.0080664
0.00778058
0.00735219
0.00672505
0.00601237
0.00517677
0.00431795
0.00344787
0.00260267
0.00187545
0.00119096
0.000750288
0.000331671
0.000259531
0.000151683
0.00045521
0.000639141
0.0012542
0.00165733
0.00246659
0.00298344
0.00384353
0.00436061
0.00513146
0.00554904
0.00607336
0.00632218
0.00627305
0.00584283
0.00493548
0.00389047
0.00247632
0.00171402
0.000705892
0.00102185
0.00109249
0.0023847
0.00339223
0.00474844
0.00588548
0.00639096
0.00680203
0.00610992
0.00551805
0.0041413
0.00311185
0.0021162
0.00139315
0.00111653
0.000893943