/*--------------------------------*- C++ -*----------------------------------*\
| =========                 |                                                 |
| \\      /  F ield         | OpenFOAM: The Open Source CFD Toolbox           |
|  \\    /   O peration     | Version:  v2106                                 |
|   \\  /    A nd           | Website:  www.openfoam.com                      |
|    \\/     M anipulation  |                                                 |
\*---------------------------------------------------------------------------*/
FoamFile
{
    version     2.0;
    format      ascii;
    arch        "LSB;label=32;scalar=64";
    class       volScalarField;
    location    "0";
    object      expGpCoeffs13;
}
// * * * * * * * * * * * * * * * * * * * * * * * * * * * * * * * * * * * * * //

dimensions      [0 0 0 0 0 0 0];

internalField   nonuniform List<scalar> 
8000
(
0.00177326
0.000417162
-0.00225665
-0.00631102
-0.0109486
-0.0156735
-0.0185832
-0.0196592
-0.0174574
-0.0120737
-0.00353681
0.00810108
0.0218795
0.0376759
0.0539266
0.0706017
0.0860012
0.100183
0.112247
0.122183
0.130146
0.136071
0.140596
0.143663
0.145846
0.147122
0.147735
0.147688
0.146992
0.145645
0.143631
0.14095
0.137607
0.133604
0.128968
0.123703
0.117854
0.111428
0.104486
0.0970338
0.0891449
0.0808279
0.0721625
0.0631579
0.0538984
0.0443941
0.0347316
0.0249209
0.0150502
0.00512952
-0.0047528
-0.014586
-0.0242818
-0.0338304
-0.0431444
-0.0522143
-0.0609561
-0.0693605
-0.0773491
-0.0849139
-0.0919857
-0.0985568
-0.10457
-0.11002
-0.114865
-0.1191
-0.1227
-0.125664
-0.127985
-0.129663
-0.130711
-0.13113
-0.130951
-0.130178
-0.128802
-0.126819
-0.123946
-0.120204
-0.115019
-0.10846
-0.100081
-0.0899512
-0.0782073
-0.0648658
-0.0509567
-0.0364399
-0.0228887
-0.010343
-9.1981e-05
0.00776989
0.0126067
0.0143966
0.0134599
0.0097095
0.00477534
-0.00127539
-0.00670518
-0.0110045
-0.0137183
-0.015011
0.00188246
0.000526654
-0.0021481
-0.00620091
-0.0109972
-0.0157249
-0.0188179
-0.0199023
-0.0177385
-0.0123614
-0.00376746
0.00786785
0.0217566
0.0375546
0.0539547
0.0706345
0.086152
0.100338
0.112424
0.122363
0.130286
0.136211
0.140686
0.143752
0.145901
0.147177
0.147786
0.147739
0.147046
0.145699
0.143685
0.141004
0.137659
0.133657
0.129017
0.123753
0.117898
0.111473
0.104524
0.0970726
0.0891758
0.0808599
0.072186
0.0631825
0.0539141
0.044411
0.0347394
0.0249299
0.0150501
0.00513061
-0.00476094
-0.0145929
-0.0242978
-0.0338452
-0.0431682
-0.0522369
-0.0609872
-0.0693904
-0.0773868
-0.0849506
-0.0920291
-0.0985993
-0.104618
-0.110067
-0.114916
-0.11915
-0.122753
-0.125716
-0.128037
-0.129715
-0.130761
-0.13118
-0.130997
-0.130225
-0.128853
-0.12687
-0.124037
-0.120294
-0.115155
-0.108595
-0.10023
-0.0900981
-0.0783101
-0.0649649
-0.0509364
-0.0364166
-0.0227342
-0.0101889
0.000147021
0.00800493
0.0128693
0.0146519
0.0136488
0.00989067
0.00476798
-0.0012842
-0.00684548
-0.0111428
-0.0138227
-0.0151151
0.00200038
0.000644887
-0.00203088
-0.006082
-0.0110497
-0.0157804
-0.0190714
-0.0201648
-0.018042
-0.0126721
-0.00401653
0.007616
0.021624
0.0374235
0.0539849
0.0706698
0.0863149
0.100506
0.112616
0.122557
0.130438
0.136364
0.140782
0.143848
0.145961
0.147237
0.147841
0.147794
0.147103
0.145757
0.143744
0.141063
0.137716
0.133714
0.12907
0.123806
0.117946
0.111522
0.104564
0.0971145
0.0892092
0.0808944
0.0722113
0.0632091
0.0539311
0.0444292
0.0347478
0.0249397
0.0150499
0.00513178
-0.00476974
-0.0146003
-0.0243152
-0.0338613
-0.0431938
-0.0522613
-0.0610207
-0.0694228
-0.0774275
-0.0849903
-0.0920759
-0.0986453
-0.10467
-0.110118
-0.114971
-0.119204
-0.122809
-0.125772
-0.128093
-0.12977
-0.130814
-0.131233
-0.131047
-0.130275
-0.128909
-0.126926
-0.124134
-0.120392
-0.115301
-0.108741
-0.10039
-0.0902567
-0.0784212
-0.065072
-0.0509144
-0.0363914
-0.0225674
-0.0100224
0.000405106
0.00825873
0.0131528
0.0149276
0.0138528
0.0100863
0.00476002
-0.00129371
-0.00699699
-0.0112922
-0.0139354
-0.0152275
0.00212771
0.000772561
-0.0019043
-0.00595361
-0.0111064
-0.0158403
-0.019345
-0.0204482
-0.0183697
-0.0130076
-0.00428548
0.00734404
0.0214807
0.037282
0.0540176
0.070708
0.0864908
0.100688
0.112823
0.122767
0.130601
0.136528
0.140886
0.143951
0.146026
0.147301
0.147901
0.147854
0.147166
0.14582
0.143806
0.141126
0.137777
0.133776
0.129127
0.123864
0.117997
0.111574
0.104609
0.0971598
0.0892453
0.0809317
0.0722386
0.0632377
0.0539494
0.0444489
0.0347569
0.0249502
0.0150497
0.00513305
-0.00477923
-0.0146084
-0.0243339
-0.0338786
-0.0432215
-0.0522877
-0.0610569
-0.0694578
-0.0774714
-0.0850331
-0.0921265
-0.0986948
-0.104725
-0.110173
-0.11503
-0.119263
-0.12287
-0.125832
-0.128153
-0.129831
-0.130873
-0.131291
-0.131101
-0.130329
-0.128968
-0.126986
-0.12424
-0.120498
-0.115459
-0.108899
-0.100564
-0.090428
-0.0785411
-0.0651876
-0.0508907
-0.0363642
-0.0223873
-0.00984256
0.000683796
0.0085328
0.013459
0.0152253
0.0140731
0.0102976
0.00475143
-0.00130398
-0.0071606
-0.0114535
-0.0140571
-0.0153488
0.00226521
0.000910428
-0.00176762
-0.00579344
-0.0111677
-0.015905
-0.0196406
-0.0207543
-0.0187237
-0.0133698
-0.00457591
0.00705037
0.021326
0.0371291
0.0540529
0.0707493
0.0866807
0.100884
0.113046
0.122993
0.130778
0.136705
0.140998
0.144063
0.146096
0.147371
0.147966
0.147919
0.147233
0.145887
0.143874
0.141194
0.137843
0.133842
0.129189
0.123927
0.118053
0.11163
0.104656
0.0972087
0.0892842
0.080972
0.0722681
0.0632687
0.0539691
0.0444702
0.0347667
0.0249616
0.0150494
0.00513442
-0.00478948
-0.014617
-0.0243541
-0.0338972
-0.0432515
-0.0523161
-0.061096
-0.0694955
-0.0775189
-0.0850793
-0.0921811
-0.0987484
-0.104786
-0.110233
-0.115094
-0.119326
-0.122935
-0.125898
-0.128219
-0.129896
-0.130935
-0.131354
-0.13116
-0.130387
-0.129033
-0.127051
-0.124353
-0.120612
-0.11563
-0.109069
-0.100751
-0.0906129
-0.0786707
-0.0653124
-0.0508651
-0.0363349
-0.0221928
-0.00964841
0.000984738
0.00882875
0.0137896
0.0155468
0.0143109
0.0105257
0.00474216
-0.00131507
-0.00735647
-0.0116277
-0.0141885
-0.0154799
0.0024578
0.001112
-0.00149197
-0.00548772
-0.0110945
-0.0157846
-0.0198994
-0.0210105
-0.0191006
-0.0137631
-0.00489419
0.00669059
0.0211226
0.0368575
0.0540708
0.070765
0.0868858
0.101096
0.113287
0.123238
0.130969
0.136897
0.141119
0.144184
0.146077
0.147349
0.147938
0.147888
0.147206
0.145859
0.143846
0.141167
0.137813
0.133815
0.129157
0.123901
0.11802
0.111605
0.104623
0.0971852
0.0892513
0.0809506
0.0722366
0.0632506
0.0539404
0.044456
0.0347417
0.0249522
0.0150289
0.0051301
-0.00480486
-0.0146161
-0.0243642
-0.0338914
-0.0432563
-0.0523058
-0.0610958
-0.0694811
-0.0775136
-0.0850615
-0.0921712
-0.0987274
-0.104771
-0.110209
-0.115075
-0.1193
-0.122912
-0.125869
-0.128191
-0.129865
-0.130903
-0.131322
-0.131123
-0.130353
-0.129004
-0.127025
-0.124476
-0.120736
-0.115815
-0.109253
-0.100954
-0.0908126
-0.0788105
-0.0654472
-0.0508142
-0.0362879
-0.0219047
-0.00941705
0.00133233
0.00914527
0.0141395
0.015887
0.014475
0.010711
0.00454379
-0.00144676
-0.00768658
-0.0119079
-0.0143846
-0.0156647
0.00275978
0.00143618
-0.00116566
-0.0051576
-0.0107583
-0.0155721
-0.0196823
-0.0210816
-0.0191729
-0.0142228
-0.00536285
0.00584756
0.0202635
0.035742
0.0529344
0.069555
0.0857141
0.100102
0.112268
0.122474
0.130144
0.136225
0.14034
0.143407
0.145189
0.146423
0.147012
0.14693
0.146248
0.144886
0.142873
0.1402
0.136846
0.132875
0.128217
0.123009
0.117129
0.110784
0.103802
0.0964541
0.0885217
0.0803287
0.0716164
0.062754
0.0534455
0.0440976
0.034385
0.0247411
0.0148197
0.0050717
-0.00486139
-0.0145205
-0.0242667
-0.0336443
-0.0430075
-0.0519139
-0.0607023
-0.0689548
-0.0769859
-0.0844145
-0.0915229
-0.0979763
-0.104019
-0.109373
-0.114238
-0.1184
-0.122011
-0.124927
-0.127248
-0.128903
-0.12994
-0.130361
-0.130162
-0.129413
-0.128065
-0.126117
-0.123682
-0.119947
-0.115133
-0.10845
-0.100204
-0.0898711
-0.0778899
-0.0644279
-0.0497631
-0.035366
-0.0209997
-0.00878931
0.00194839
0.00940518
0.0143945
0.0158052
0.0143949
0.0104092
0.00424796
-0.00180974
-0.00804305
-0.0122312
-0.0147058
-0.0159566
0.00308587
0.00178623
-0.000813299
-0.00480111
-0.0103952
-0.0153425
-0.0194479
-0.0211583
-0.0192508
-0.0147192
-0.00586891
0.00493722
0.0193357
0.0345374
0.0517072
0.0682484
0.0843839
0.0988739
0.11102
0.121403
0.129061
0.13526
0.139371
0.142449
0.14423
0.145423
0.146012
0.145896
0.145213
0.143835
0.141823
0.139155
0.135802
0.131859
0.127203
0.122045
0.116167
0.109896
0.102917
0.0956646
0.0877338
0.0796572
0.0709467
0.0622178
0.0529112
0.0437105
0.0339999
0.0245131
0.0145937
0.00500864
-0.00492244
-0.0144172
-0.0241614
-0.0333776
-0.0427388
-0.0514908
-0.0602774
-0.0683865
-0.0764159
-0.0837159
-0.0908228
-0.0971653
-0.103207
-0.10847
-0.113334
-0.117428
-0.121038
-0.123909
-0.12623
-0.127864
-0.128901
-0.129323
-0.129124
-0.128398
-0.12705
-0.125137
-0.122702
-0.118966
-0.114156
-0.107395
-0.0991607
-0.0887214
-0.076758
-0.0632726
-0.0486281
-0.0343706
-0.0200224
-0.00811144
0.00261364
0.00968583
0.0146698
0.0157169
0.0143085
0.0100833
0.00392852
-0.00220171
-0.00842798
-0.0125803
-0.0150526
-0.0162717
0.00343799
0.00216424
-0.000432803
-0.00441617
-0.0100032
-0.0150947
-0.0191948
-0.0212412
-0.019335
-0.0152553
-0.00641539
0.00395419
0.0183339
0.0332367
0.0503821
0.0668375
0.0829476
0.0975474
0.109673
0.120246
0.127891
0.134219
0.138324
0.141413
0.143195
0.144344
0.144933
0.144778
0.144096
0.142701
0.14069
0.138027
0.134675
0.130763
0.126107
0.121005
0.115128
0.108938
0.10196
0.0948121
0.0868831
0.0789321
0.0702235
0.0616387
0.0523342
0.0432925
0.033584
0.0242669
0.0143497
0.00494054
-0.00498835
-0.0143056
-0.0240477
-0.0330895
-0.0424487
-0.0510339
-0.0598186
-0.0677729
-0.0758005
-0.0829615
-0.0900668
-0.0962896
-0.10233
-0.107496
-0.112358
-0.116379
-0.119988
-0.122811
-0.12513
-0.126741
-0.127778
-0.128202
-0.128003
-0.127302
-0.125955
-0.124078
-0.121644
-0.117906
-0.113102
-0.106256
-0.0980344
-0.08748
-0.0755358
-0.0620251
-0.0474025
-0.0332957
-0.018967
-0.00737945
0.00333199
0.0099889
0.0149672
0.0156216
0.0142152
0.00973138
0.00358356
-0.00262498
-0.00884364
-0.0129572
-0.0154271
-0.0166121
0.00381823
0.00257242
-2.19277e-05
-0.00400049
-0.0095799
-0.014827
-0.0189215
-0.0213307
-0.0194259
-0.0158342
-0.00700549
0.00289268
0.0172521
0.0318321
0.0489512
0.065314
0.0813965
0.096115
0.108218
0.118996
0.126627
0.133094
0.137194
0.140296
0.142076
0.143178
0.143767
0.143572
0.142889
0.141477
0.139465
0.136809
0.133458
0.129578
0.124924
0.119882
0.114007
0.107903
0.100927
0.0938915
0.0859644
0.0781491
0.0694425
0.0610134
0.0517111
0.0428411
0.0331349
0.0240011
0.0140862
0.00486701
-0.00505954
-0.0141851
-0.023925
-0.0327784
-0.0421354
-0.0505406
-0.0593232
-0.0671102
-0.075136
-0.0821468
-0.0892504
-0.0953439
-0.101383
-0.106443
-0.111304
-0.115245
-0.118854
-0.121624
-0.123943
-0.125529
-0.126566
-0.126992
-0.126793
-0.126119
-0.124772
-0.122934
-0.120501
-0.116762
-0.111964
-0.105026
-0.0968181
-0.0861394
-0.074216
-0.060678
-0.046079
-0.0321349
-0.0178274
-0.00658902
0.00410771
0.0103162
0.0152883
0.0155186
0.0141145
0.00935135
0.00321107
-0.00308203
-0.00929248
-0.0133642
-0.0158315
-0.0169796
0.00422882
0.0030132
0.000421752
-0.00355162
-0.00912277
-0.014538
-0.0186264
-0.0214274
-0.0195241
-0.0164593
-0.00764271
0.00174642
0.0160839
0.0303153
0.047406
0.0636688
0.0797217
0.0945682
0.106646
0.117647
0.125263
0.13188
0.135974
0.139088
0.140869
0.141919
0.142508
0.142269
0.141587
0.140154
0.138143
0.135494
0.132144
0.1283
0.123646
0.11867
0.112795
0.106786
0.0998112
0.0928974
0.0849723
0.0773036
0.0685992
0.0603382
0.0510383
0.0423537
0.03265
0.023714
0.0138017
0.00478761
-0.0051364
-0.0140551
-0.0237924
-0.0324425
-0.0417971
-0.0500078
-0.0587882
-0.0663947
-0.0744184
-0.0812671
-0.0883689
-0.0943227
-0.10036
-0.105306
-0.110166
-0.114022
-0.117629
-0.120343
-0.122662
-0.124221
-0.125257
-0.125685
-0.125486
-0.124841
-0.123494
-0.121699
-0.119267
-0.115527
-0.110735
-0.103698
-0.0955047
-0.0846918
-0.0727908
-0.0592233
-0.0446499
-0.0308815
-0.0165968
-0.00573547
0.00494536
0.0106696
0.015635
0.0154074
0.0140057
0.00894098
0.00280884
-0.00357558
-0.00977716
-0.0138038
-0.0162681
-0.0173764
0.0046722
0.00348917
0.000900855
-0.00306691
-0.00862915
-0.0142258
-0.0183077
-0.0215317
-0.0196301
-0.0171343
-0.00833081
0.000508635
0.0148225
0.0286775
0.0457375
0.0618922
0.0779131
0.092898
0.10495
0.11619
0.123789
0.130569
0.134656
0.137785
0.139565
0.14056
0.141148
0.140862
0.14018
0.138726
0.136716
0.134074
0.130725
0.126919
0.122267
0.11736
0.111488
0.105579
0.0986065
0.0918239
0.083901
0.0763906
0.0676886
0.0596091
0.0503117
0.0418274
0.0321264
0.0234041
0.0134945
0.00470186
-0.00521941
-0.0139146
-0.0236493
-0.0320798
-0.0414318
-0.0494325
-0.0582104
-0.065622
-0.0736435
-0.0803171
-0.087417
-0.09322
-0.0992554
-0.104079
-0.108937
-0.1127
-0.116306
-0.118959
-0.121277
-0.122808
-0.123844
-0.124274
-0.124075
-0.123461
-0.122115
-0.120366
-0.117934
-0.114193
-0.109408
-0.102263
-0.0940865
-0.0831286
-0.0712518
-0.0576525
-0.0431067
-0.029528
-0.015268
-0.00481378
0.00584989
0.0110512
0.0160094
0.0152874
0.0138882
0.00849784
0.00237449
-0.00410854
-0.0103005
-0.0142784
-0.0167397
-0.017805
0.00527896
0.00411261
0.00166846
-0.00234099
-0.00778327
-0.0135608
-0.0177665
-0.0213152
-0.0197709
-0.0176971
-0.00935469
-0.000904926
0.0129161
0.0265339
0.04332
0.0593731
0.075462
0.0904413
0.102752
0.114063
0.121896
0.128747
0.13286
0.136004
0.137587
0.138543
0.139095
0.138776
0.138066
0.136597
0.134582
0.131946
0.128616
0.124837
0.120231
0.115373
0.109573
0.103736
0.0968598
0.0901689
0.0823658
0.0749661
0.066404
0.0584512
0.0493104
0.0409658
0.0314341
0.0228609
0.0131289
0.00449081
-0.00524899
-0.0137883
-0.0233424
-0.0316197
-0.0407967
-0.0486509
-0.0572637
-0.0645393
-0.07241
-0.0789614
-0.0859286
-0.0916265
-0.0975505
-0.102288
-0.107059
-0.110757
-0.114302
-0.116912
-0.119195
-0.120705
-0.121732
-0.122164
-0.121981
-0.121389
-0.120069
-0.118352
-0.116117
-0.112371
-0.10758
-0.100411
-0.0920539
-0.0810955
-0.0690433
-0.0555195
-0.0409861
-0.0275657
-0.0136085
-0.00342238
0.00678905
0.0116147
0.0161867
0.015096
0.0134265
0.00776932
0.00162245
-0.00499577
-0.0110121
-0.0150152
-0.0173563
-0.0183992
0.00607483
0.00490973
0.00251154
-0.00148632
-0.00673303
-0.0124843
-0.0169352
-0.02046
-0.0199792
-0.0179098
-0.0110156
-0.00260513
0.00985968
0.0234088
0.0392569
0.0552249
0.0710563
0.0859563
0.0986566
0.109913
0.118315
0.125138
0.129587
0.132726
0.134346
0.135302
0.135745
0.135426
0.13463
0.133162
0.13113
0.128494
0.125223
0.121445
0.116975
0.112119
0.106533
0.100697
0.0941098
0.087421
0.079975
0.0725777
0.064433
0.0564828
0.0478092
0.0394673
0.0304408
0.0218704
0.0126688
0.00403343
-0.00516461
-0.0137012
-0.0227159
-0.0309906
-0.0396445
-0.0474962
-0.0556159
-0.0628891
-0.0703092
-0.0768585
-0.0834292
-0.0891253
-0.0947168
-0.0994528
-0.103963
-0.10766
-0.111021
-0.11363
-0.115808
-0.117318
-0.118318
-0.118749
-0.118615
-0.118023
-0.116781
-0.115065
-0.112782
-0.109041
-0.10401
-0.0968686
-0.0881822
-0.0772749
-0.065124
-0.0516693
-0.037617
-0.0242654
-0.0113322
-0.00119586
0.00771835
0.0125227
0.0158382
0.014757
0.0122959
0.00666932
0.000501243
-0.00608998
-0.0118316
-0.0158236
-0.0181438
-0.0191855
0.00696632
0.00580253
0.00369161
-0.00029559
-0.00558992
-0.0113129
-0.0160375
-0.0195365
-0.0202041
-0.0181394
-0.0128092
-0.00444108
0.00655922
0.0200343
0.0348694
0.0507456
0.0662988
0.0811131
0.0942343
0.105432
0.114447
0.121241
0.126053
0.129187
0.130847
0.131803
0.132127
0.131808
0.13092
0.129452
0.127402
0.124767
0.121559
0.117782
0.113459
0.108605
0.103249
0.0974159
0.0911401
0.0844537
0.0773934
0.0699986
0.0623046
0.0543572
0.0461882
0.0378492
0.0293683
0.0208008
0.0121719
0.00353954
-0.0050735
-0.0136071
-0.0220394
-0.0303112
-0.0384003
-0.0462493
-0.0538364
-0.0611071
-0.0680406
-0.0745876
-0.0807302
-0.0864244
-0.0916568
-0.0963911
-0.10062
-0.104315
-0.107477
-0.110086
-0.112151
-0.11366
-0.114631
-0.115062
-0.11498
-0.114388
-0.11323
-0.111515
-0.109181
-0.105446
-0.100155
-0.0930433
-0.0840013
-0.0731493
-0.0608917
-0.0475117
-0.0339788
-0.0207017
-0.00887419
0.00120843
0.00872183
0.0135032
0.0154619
0.0143909
0.0110751
0.00548149
-0.000759093
-0.00732226
-0.013023
-0.0170051
-0.0190228
-0.0200633
0.008445
0.00728328
0.00545684
0.00149367
-0.0043038
-0.00999433
-0.0161151
-0.0196193
-0.0218495
-0.0198353
-0.0160973
-0.00781352
0.00204642
0.0154168
0.0299425
0.0457149
0.0616984
0.0764318
0.0903111
0.101458
0.11111
0.117879
0.122824
0.125953
0.127384
0.128339
0.128471
0.128153
0.127173
0.125705
0.123635
0.121001
0.11785
0.114075
0.109892
0.10504
0.099908
0.0940768
0.0881068
0.0814229
0.0747453
0.0673532
0.0601105
0.0521661
0.0445058
0.03617
0.028242
0.0196777
0.0116309
0.00300183
-0.00501564
-0.0135461
-0.0213854
-0.0296541
-0.0371686
-0.0450147
-0.0520603
-0.0593283
-0.0657671
-0.0723117
-0.0780184
-0.0837104
-0.088576
-0.0933086
-0.0972476
-0.100941
-0.103896
-0.106503
-0.108444
-0.109953
-0.110885
-0.111316
-0.111273
-0.110681
-0.109676
-0.107962
-0.105849
-0.102119
-0.0967592
-0.0896726
-0.0801685
-0.0693655
-0.0566122
-0.0433067
-0.0296289
-0.0164422
-0.00514078
0.0048565
0.0111555
0.0158746
0.0163196
0.01522
0.0105172
0.00493595
-0.00242146
-0.00894318
-0.0148858
-0.0188429
-0.020434
-0.0214726
0.0100356
0.00887725
0.00724898
0.00329402
-0.00290989
-0.00858951
-0.0162065
-0.0197185
-0.0237546
-0.0217969
-0.0197507
-0.0115598
-0.00288595
0.0103702
0.0246033
0.0402633
0.0568173
0.0714637
0.0862516
0.0973443
0.107702
0.114444
0.119449
0.122572
0.123662
0.124617
0.124537
0.124219
0.12314
0.121673
0.119581
0.116948
0.113859
0.110086
0.106053
0.101202
0.0963109
0.090482
0.0848407
0.0781595
0.0718932
0.0645042
0.0577468
0.0498056
0.0426928
0.0343604
0.0270275
0.0184667
0.0110466
0.00242096
-0.00495534
-0.0134823
-0.0206834
-0.0289487
-0.0358446
-0.0436875
-0.0501502
-0.0574152
-0.0633216
-0.0698635
-0.075101
-0.0807907
-0.0852613
-0.0899919
-0.0936186
-0.0973109
-0.100041
-0.102648
-0.104455
-0.105963
-0.106851
-0.107282
-0.107281
-0.10669
-0.105854
-0.10414
-0.102355
-0.0986309
-0.0932698
-0.0862104
-0.0761691
-0.065419
-0.0520371
-0.0388119
-0.02489
-0.0118013
-0.00104274
0.008861
0.0138849
0.018535
0.0173595
0.0162272
0.00992164
0.00435222
-0.0041725
-0.0106889
-0.0167369
-0.0206729
-0.0219522
-0.0229873
0.0113652
0.0103553
0.00873596
0.00496531
-0.00120367
-0.00717431
-0.014863
-0.0193215
-0.0236075
-0.0231246
-0.0212949
-0.0147558
-0.00627804
0.00557295
0.0196519
0.0345052
0.0510363
0.0655622
0.0804152
0.0917934
0.102213
0.109181
0.114108
0.117158
0.118045
0.118801
0.118705
0.118246
0.11716
0.115656
0.113563
0.111007
0.107923
0.104345
0.100326
0.0957913
0.0909205
0.0855253
0.0799117
0.0737745
0.0675429
0.0607968
0.0540799
0.0468659
0.0397986
0.0322596
0.024976
0.017255
0.00988657
0.00212557
-0.00519787
-0.0128577
-0.0200062
-0.0274241
-0.0342691
-0.0413058
-0.0477205
-0.0542407
-0.0601032
-0.0659799
-0.0711787
-0.076298
-0.0807362
-0.0850038
-0.0886046
-0.0919497
-0.0946611
-0.0970403
-0.0988369
-0.100237
-0.101122
-0.101561
-0.101563
-0.101087
-0.100264
-0.0987362
-0.0971226
-0.0935093
-0.0882232
-0.0810783
-0.0709988
-0.0601929
-0.0467815
-0.0339092
-0.0200437
-0.00790176
0.00269309
0.0111962
0.0160383
0.019184
0.0178197
0.0154621
0.00896199
0.00272832
-0.00582812
-0.0123906
-0.0184035
-0.0220413
-0.0233125
-0.0241765
0.012801
0.0119515
0.0103417
0.00677004
0.000638773
-0.00564612
-0.0132967
-0.0188899
-0.0231685
-0.0244764
-0.0226836
-0.0181321
-0.00973426
0.000440977
0.0144079
0.0283029
0.0447129
0.059085
0.0738351
0.085528
0.0958797
0.103096
0.107996
0.110959
0.111846
0.11237
0.112274
0.111651
0.110566
0.109019
0.106927
0.104459
0.101378
0.0980266
0.0940093
0.089842
0.0849735
0.0800826
0.0744718
0.0689673
0.0627386
0.0567406
0.0500269
0.0436588
0.0365948
0.0299789
0.0226987
0.0159547
0.00858968
0.00183441
-0.00548556
-0.0121367
-0.0192818
-0.0257139
-0.0325557
-0.0386544
-0.0450661
-0.0507198
-0.0565795
-0.0616822
-0.0668786
-0.0713345
-0.0757706
-0.0794995
-0.0830987
-0.0860397
-0.0887498
-0.0908645
-0.0926602
-0.0939356
-0.0948196
-0.0952679
-0.0952705
-0.0949287
-0.0941061
-0.0927942
-0.0911817
-0.0877035
-0.0824434
-0.0752244
-0.0652074
-0.0543651
-0.0410447
-0.0286072
-0.0148432
-0.00383093
0.00667658
0.0135059
0.0182937
0.0196266
0.0182482
0.0144004
0.00792384
0.000895205
-0.00761593
-0.0142281
-0.0202033
-0.023519
-0.0247813
-0.0254607
0.0143514
0.013675
0.0120756
0.00871886
0.00262832
-0.00399591
-0.0116053
-0.0184237
-0.0226944
-0.0259362
-0.0241831
-0.0217779
-0.0134664
-0.00510075
0.00874507
0.0216055
0.0378846
0.0520905
0.0667296
0.0787624
0.0890411
0.0965253
0.101396
0.104266
0.105152
0.105426
0.10533
0.104531
0.103446
0.101852
0.099761
0.0973894
0.0943093
0.0912035
0.0871882
0.0834178
0.0785518
0.0742055
0.0685975
0.0637763
0.0575508
0.0523605
0.0456502
0.0401956
0.0331352
0.0275161
0.0202396
0.0145505
0.00718926
0.00152
-0.00579622
-0.0113581
-0.0184996
-0.0238672
-0.0307054
-0.0357914
-0.0421998
-0.0469178
-0.0527745
-0.0570415
-0.0622352
-0.0659747
-0.0704085
-0.0735558
-0.0771531
-0.0796578
-0.0823666
-0.0841956
-0.0859904
-0.0871308
-0.0880143
-0.0884727
-0.0884753
-0.0882784
-0.0874561
-0.0863778
-0.0847664
-0.0814342
-0.0762021
-0.0689031
-0.0589535
-0.0480721
-0.0348499
-0.0228819
-0.00922748
0.000564922
0.0109781
0.0159999
0.0207291
0.0201045
0.0187109
0.0132539
0.0068028
-0.00108427
-0.00954649
-0.0162124
-0.0221467
-0.0251146
-0.0263675
-0.0268474
0.015805
0.0151861
0.0134661
0.0102134
0.00464236
-0.0020362
-0.009381
-0.0166625
-0.0215562
-0.0255903
-0.0251242
-0.0236238
-0.0169746
-0.00940241
0.00272341
0.0150764
0.0300581
0.0440868
0.0581292
0.070195
0.0803483
0.087874
0.0927641
0.0955879
0.0963711
0.0965476
0.096341
0.095473
0.09432
0.0927089
0.0906709
0.0883374
0.0854394
0.0824305
0.0787282
0.0751139
0.0706892
0.0665569
0.0615113
0.0569584
0.0514048
0.0465316
0.0405878
0.0354915
0.0292742
0.024046
0.0176687
0.0123932
0.00596534
0.000721837
-0.00564986
-0.0107848
-0.0169942
-0.0219445
-0.0278863
-0.0325753
-0.0381452
-0.0424964
-0.0475931
-0.0515323
-0.0560623
-0.059521
-0.0634019
-0.0663211
-0.0694872
-0.0718206
-0.0742258
-0.0759428
-0.0775631
-0.0786503
-0.0794853
-0.0799475
-0.0800202
-0.0798799
-0.0791725
-0.0781857
-0.0766803
-0.0734195
-0.0682638
-0.061
-0.0513609
-0.0405619
-0.0281106
-0.0164285
-0.0041265
0.00510144
0.0138922
0.01814
0.0214219
0.0199861
0.0175948
0.0114911
0.00472693
-0.00346866
-0.0114542
-0.0180673
-0.0234197
-0.0262527
-0.0276776
-0.0280916
0.0174254
0.0168087
0.0156685
0.0124396
0.0071835
0.000564673
-0.00694192
-0.0141568
-0.0203467
-0.0243523
-0.0262851
-0.0248154
-0.0210141
-0.0135351
-0.00404153
0.00816748
0.0212563
0.0351259
0.0482763
0.0602117
0.0701391
0.077589
0.0825272
0.0853365
0.0860671
0.0862435
0.0857923
0.0849248
0.0836553
0.0820451
0.0800935
0.0777614
0.0751646
0.0721574
0.0689754
0.0653633
0.0616743
0.0575446
0.0534386
0.0488885
0.0444599
0.0395895
0.034931
0.0298377
0.0250357
0.0198106
0.0149441
0.00967173
0.00481287
-0.000427502
-0.00521132
-0.0103432
-0.0149856
-0.0199329
-0.0243681
-0.0290543
-0.0332152
-0.0375638
-0.0413837
-0.0453206
-0.0487357
-0.0521924
-0.0551447
-0.0580622
-0.0605036
-0.0628356
-0.0647301
-0.0664461
-0.0677722
-0.0688587
-0.0696107
-0.0700726
-0.0702609
-0.0701207
-0.0696573
-0.0686711
-0.0672656
-0.0640185
-0.0589886
-0.0517935
-0.0426804
-0.0319951
-0.0207268
-0.00917614
0.00110773
0.0102261
0.0164809
0.0206695
0.0214053
0.0199671
0.0156316
0.00957469
0.00198738
-0.00613638
-0.0139415
-0.0204992
-0.0253592
-0.0281722
-0.0290101
-0.0294225
0.0194777
0.018881
0.0186166
0.015485
0.0105966
0.00403285
-0.00473
-0.011882
-0.0204815
-0.0244991
-0.0293922
-0.0280049
-0.027162
-0.0198172
-0.0124881
-0.000460014
0.0117886
0.025487
0.0387819
0.0505902
0.0608747
0.0682538
0.0727392
0.0755342
0.075333
0.0755084
0.0746147
0.0737473
0.0723501
0.070741
0.0688722
0.0665421
0.0642523
0.0612481
0.0586031
0.0549948
0.0520712
0.047946
0.0448234
0.0402787
0.0370335
0.032169
0.0288683
0.0237814
0.0204795
0.0152611
0.0119997
0.00673428
0.00354442
-0.00168898
-0.00478284
-0.00990778
-0.0128831
-0.0178237
-0.020657
-0.0253368
-0.0280009
-0.0323437
-0.0348081
-0.0387398
-0.0409719
-0.044424
-0.0463909
-0.0493047
-0.0509761
-0.0533054
-0.0546558
-0.0563697
-0.0573798
-0.0584653
-0.0591235
-0.0595852
-0.0598888
-0.0597491
-0.0597047
-0.0587199
-0.0582024
-0.054969
-0.0504519
-0.0433217
-0.0341019
-0.0235299
-0.0124672
-0.00106349
0.00807719
0.0170485
0.0210454
0.0251375
0.0230772
0.0215925
0.0146511
0.00861177
-0.000894491
-0.00894718
-0.0174531
-0.0239488
-0.0280797
-0.0307858
-0.0306549
-0.0310477
0.0210315
0.0207766
0.0205231
0.0181385
0.0133068
0.00718307
-0.00149738
-0.00924409
-0.0178299
-0.0236614
-0.0285891
-0.0299552
-0.0292049
-0.0249884
-0.0178421
-0.0085902
0.0034547
0.0152583
0.0284052
0.0392252
0.0494098
0.0562552
0.0606243
0.062922
0.0626175
0.0623625
0.0614694
0.0603732
0.0589769
0.0573826
0.0555151
0.0534611
0.0511728
0.048715
0.0460719
0.0432795
0.0403578
0.0373079
0.0341875
0.0309577
0.0277148
0.0243774
0.021079
0.0176962
0.0143966
0.0110185
0.00775939
0.00442508
0.00123744
-0.00202221
-0.00511392
-0.00827213
-0.0112454
-0.0142758
-0.017107
-0.0199808
-0.0226431
-0.0253282
-0.0277909
-0.0302525
-0.0324831
-0.0346854
-0.0366509
-0.0385598
-0.0402301
-0.0418151
-0.0431646
-0.0444014
-0.0454108
-0.0462829
-0.0469407
-0.0474405
-0.0477439
-0.0478736
-0.0478292
-0.0473106
-0.0468723
-0.0442124
-0.0397988
-0.0333801
-0.0242574
-0.0148979
-0.00397326
0.00540489
0.0143656
0.0206313
0.0244826
0.0257351
0.0236186
0.0198304
0.0128841
0.00554795
-0.00392004
-0.0120893
-0.020515
-0.0262637
-0.030346
-0.0322028
-0.0320639
-0.0321105
0.0227094
0.0228236
0.0225657
0.0210038
0.0162333
0.0105848
0.00199334
-0.00639551
-0.0149109
-0.02275
-0.0276613
-0.0320612
-0.0313648
-0.0305724
-0.0235511
-0.0173508
-0.00547859
0.00422216
0.0171938
0.0268799
0.0369328
0.0431422
0.0474547
0.0491918
0.0488869
0.048167
0.0472746
0.0459313
0.044536
0.0429576
0.0410915
0.0393357
0.0370492
0.0351812
0.0325402
0.0306288
0.0277093
0.0258204
0.0227023
0.0208926
0.0176521
0.0159637
0.0126678
0.0111252
0.00782802
0.00643716
0.0031805
0.00193151
-0.00125373
-0.00238204
-0.00547142
-0.00650589
-0.00947691
-0.0104445
-0.0132737
-0.0141972
-0.0168574
-0.0177525
-0.0202134
-0.0210876
-0.0233165
-0.0241692
-0.0261333
-0.026957
-0.0286261
-0.0294075
-0.030756
-0.0314776
-0.0324861
-0.0331279
-0.0337852
-0.0343262
-0.0346294
-0.03505
-0.0350055
-0.0349904
-0.034553
-0.0325413
-0.0281783
-0.0225921
-0.0135833
-0.00560258
0.00517693
0.0123096
0.0211365
0.0244273
0.0281942
0.0263387
0.0242032
0.0178763
0.010971
0.00219925
-0.00718717
-0.0154823
-0.0238214
-0.0287634
-0.0327933
-0.0337158
-0.0335853
-0.0332582
0.0241549
0.0243251
0.0238312
0.02237
0.0186613
0.0131884
0.00592447
-0.00250582
-0.0108855
-0.0190653
-0.0253369
-0.0303259
-0.0322434
-0.0321758
-0.0286668
-0.0231882
-0.0149929
-0.00588993
0.0041528
0.0134136
0.0216375
0.0275724
0.0312999
0.0328889
0.0325704
0.0317618
0.0306963
0.0293065
0.0278387
0.0262644
0.0245914
0.0228939
0.0210778
0.0193243
0.0174324
0.0156913
0.0137914
0.0121264
0.0102802
0.00874404
0.00700119
0.00563028
0.00402408
0.00283548
0.0013808
0.000372076
-0.000933412
-0.00178155
-0.00295397
-0.00367269
-0.0047367
-0.0053631
-0.00634617
-0.00691748
-0.00784505
-0.00839385
-0.00928562
-0.00983676
-0.0107047
-0.0112738
-0.0121219
-0.0127152
-0.0135397
-0.0141547
-0.0149453
-0.0155721
-0.0163138
-0.016936
-0.0176103
-0.0182073
-0.0187938
-0.0193423
-0.0198207
-0.0202968
-0.0205232
-0.0206046
-0.0203097
-0.0184657
-0.0148612
-0.00957672
-0.00253255
0.00500153
0.0128627
0.0194059
0.0248071
0.0274282
0.0281306
0.025644
0.021443
0.0146472
0.0069517
-0.00203666
-0.0108127
-0.0190508
-0.0258517
-0.0305722
-0.033535
-0.034356
-0.0344876
-0.0341045
0.0254896
0.0256612
0.0270084
0.0256131
0.0234916
0.0180843
0.0109603
0.00266939
-0.007162
-0.0152508
-0.0244982
-0.0294759
-0.0354887
-0.0355034
-0.0362768
-0.0309657
-0.0262216
-0.0173246
-0.00947054
-0.000391373
0.00660601
0.0124291
0.0149726
0.0165395
0.0150326
0.0142247
0.0125861
0.0111976
0.00960724
0.00803431
0.00658422
0.00488822
0.00365745
0.00190549
0.000966175
-0.000773401
-0.0013617
-0.00302523
-0.00322166
-0.00475646
-0.00454409
-0.0059138
-0.00530274
-0.00649028
-0.00551818
-0.00652601
-0.00525481
-0.0061022
-0.00461266
-0.00533075
-0.00371506
-0.00434091
-0.00269456
-0.00326536
-0.00168019
-0.0022285
-0.000786591
-0.00133725
-0.000106798
-0.000675415
0.000291821
-0.000300979
0.000369226
-0.000245285
0.000112166
-0.000514028
-0.000467286
-0.001089
-0.00133443
-0.001931
-0.00243576
-0.00298384
-0.00370366
-0.00417935
-0.00505296
-0.00513431
-0.00603611
-0.00421181
-0.00186477
0.00332341
0.0089438
0.0163265
0.0218412
0.0282216
0.0302117
0.0327141
0.0294575
0.0269331
0.0191995
0.0124483
0.00245533
-0.00642376
-0.0159794
-0.0240781
-0.0301436
-0.034817
-0.0358633
-0.0366254
-0.0349612
-0.0345779
0.0261036
0.0267683
0.0281165
0.0281058
0.0260817
0.0222762
0.0153308
0.00780642
-0.00199964
-0.0108257
-0.0201946
-0.0275363
-0.0337953
-0.0374705
-0.0386295
-0.0375515
-0.0332169
-0.0281997
-0.020665
-0.0144629
-0.00768662
-0.00365165
-0.00129936
-0.000757967
-0.00235143
-0.00373128
-0.005404
-0.00703735
-0.00863345
-0.0101317
-0.0115683
-0.01285
-0.014047
-0.0150368
-0.0159219
-0.0165554
-0.0170695
-0.0172994
-0.0174029
-0.0172041
-0.0168819
-0.0162559
-0.0155205
-0.0144967
-0.0133887
-0.0120228
-0.0106075
-0.0089772
-0.00733886
-0.00553714
-0.00377167
-0.00189879
-0.000105621
0.00173828
0.00346373
0.00518561
0.00675784
0.00827694
0.00962453
0.0108761
0.0119448
0.0128822
0.013636
0.014232
0.0146538
0.0149006
0.0149916
0.0148998
0.0146787
0.014276
0.0137762
0.0131043
0.0123714
0.0114829
0.0105708
0.00978367
0.00880833
0.00950009
0.0116689
0.0149776
0.0203826
0.0248886
0.0301033
0.0328043
0.0344281
0.0331339
0.0295548
0.0239813
0.0160648
0.00762754
-0.0024297
-0.0114186
-0.0208928
-0.0277599
-0.0336248
-0.0364531
-0.0374169
-0.0367648
-0.0351054
-0.0342567
0.0266323
0.0276491
0.02876
0.0296827
0.0282725
0.025708
0.0197717
0.0128988
0.00383435
-0.00554632