/*--------------------------------*- C++ -*----------------------------------*\
| =========                 |                                                 |
| \\      /  F ield         | OpenFOAM: The Open Source CFD Toolbox           |
|  \\    /   O peration     | Version:  v2106                                 |
|   \\  /    A nd           | Website:  www.openfoam.com                      |
|    \\/     M anipulation  |                                                 |
\*---------------------------------------------------------------------------*/
FoamFile
{
    version     2.0;
    format      ascii;
    arch        "LSB;label=32;scalar=64";
    class       volScalarField;
    location    "0";
    object      expGpCoeffs10;
}
// * * * * * * * * * * * * * * * * * * * * * * * * * * * * * * * * * * * * * //

dimensions      [0 0 0 0 0 0 0];

internalField   nonuniform List<scalar> 
8000
(
0.123775
0.123562
0.123193
0.122691
0.122235
0.121881
0.121728
0.121738
0.121791
0.12187
0.121768
0.121471
0.120757
0.119612
0.117874
0.115536
0.112675
0.109285
0.105727
0.102009
0.0985141
0.0952713
0.0922799
0.0895687
0.0868284
0.0840395
0.0810346
0.0778134
0.0743998
0.0707995
0.0670726
0.0632253
0.0593188
0.0553594
0.0514051
0.0474617
0.0435803
0.0397656
0.0360577
0.0324601
0.0289985
0.0256752
0.0224992
0.0194711
0.0165821
0.0138316
0.0111938
0.00866643
0.00620923
0.00381885
0.00144455
-0.000917455
-0.00332251
-0.00577475
-0.00832739
-0.010984
-0.0137892
-0.0167453
-0.019882
-0.0232002
-0.0267102
-0.0304107
-0.03429
-0.0383451
-0.0425417
-0.0468751
-0.051291
-0.0557827
-0.0602803
-0.0647762
-0.0691903
-0.0735143
-0.0776652
-0.0816348
-0.0853724
-0.0888756
-0.0922809
-0.0956083
-0.0991649
-0.102919
-0.106923
-0.111146
-0.115271
-0.119289
-0.122859
-0.125991
-0.128557
-0.130564
-0.132068
-0.133074
-0.133677
-0.133883
-0.13383
-0.133518
-0.133181
-0.132852
-0.13264
-0.132553
-0.132522
-0.132525
0.123793
0.12358
0.1232
0.122697
0.122218
0.121863
0.121717
0.121726
0.121797
0.121876
0.121793
0.121496
0.120802
0.119657
0.117927
0.11559
0.112709
0.109319
0.105722
0.102004
0.0984825
0.0952398
0.0922691
0.0895582
0.0868452
0.0840567
0.0810523
0.0778315
0.0744123
0.0708125
0.0670796
0.0632328
0.0593204
0.0553614
0.0514017
0.0474589
0.0435728
0.0397586
0.0360472
0.0324501
0.0289864
0.0256636
0.0224871
0.0194593
0.0165715
0.0138213
0.0111861
0.00865905
0.00620557
0.00381549
0.00144562
-0.000916087
-0.0033166
-0.00576854
-0.00831713
-0.0109734
-0.0137757
-0.0167314
-0.0198667
-0.0231845
-0.026695
-0.0303951
-0.034277
-0.0383316
-0.0425328
-0.0468656
-0.0512877
-0.0557789
-0.0602839
-0.0647791
-0.0692012
-0.0735247
-0.0776834
-0.0816525
-0.0853923
-0.088895
-0.0922757
-0.0956027
-0.0991368
-0.10289
-0.106915
-0.111138
-0.115298
-0.119317
-0.122908
-0.126039
-0.128603
-0.130609
-0.132105
-0.133111
-0.133706
-0.133911
-0.133843
-0.133531
-0.133169
-0.13284
-0.132633
-0.132545
-0.132522
-0.132525
0.123811
0.123598
0.123206
0.122704
0.122199
0.121843
0.121705
0.121714
0.121803
0.121882
0.121819
0.121523
0.120849
0.119705
0.117985
0.115649
0.112746
0.109356
0.105716
0.101999
0.0984484
0.0952057
0.0922574
0.0895468
0.0868634
0.0840753
0.0810714
0.0778511
0.0744258
0.0708264
0.0670871
0.0632409
0.0593221
0.0553637
0.0513981
0.0474558
0.0435647
0.0397511
0.0360359
0.0324393
0.0289734
0.025651
0.022474
0.0194466
0.01656
0.0138102
0.0111778
0.00865108
0.00620162
0.00381187
0.00144677
-0.000914609
-0.00331023
-0.00576182
-0.00830606
-0.010962
-0.013761
-0.0167164
-0.0198502
-0.0231675
-0.0266787
-0.0303783
-0.034263
-0.038317
-0.0425231
-0.0468554
-0.0512842
-0.0557747
-0.0602877
-0.0647823
-0.0692129
-0.0735359
-0.0777031
-0.0816716
-0.0854137
-0.088916
-0.0922701
-0.0955966
-0.0991064
-0.10286
-0.106907
-0.11113
-0.115328
-0.119346
-0.12296
-0.126091
-0.128653
-0.130659
-0.132145
-0.13315
-0.133737
-0.133942
-0.133857
-0.133545
-0.133155
-0.132827
-0.132624
-0.132537
-0.132523
-0.132526
0.123831
0.123618
0.123214
0.122711
0.122178
0.121822
0.121692
0.121701
0.121809
0.121889
0.121848
0.121553
0.120901
0.119758
0.118047
0.115712
0.112786
0.109396
0.105711
0.101993
0.0984116
0.095169
0.0922447
0.0895346
0.086883
0.0840953
0.081092
0.0778722
0.0744403
0.0708415
0.0670953
0.0632496
0.0593239
0.0553661
0.0513941
0.0474524
0.0435559
0.0397429
0.0360236
0.0324276
0.0289593
0.0256374
0.0224598
0.0194329
0.0165476
0.0137983
0.0111688
0.00864247
0.00619735
0.00380796
0.00144801
-0.000913014
-0.00330334
-0.00575457
-0.0082941
-0.0109496
-0.0137452
-0.0167001
-0.0198324
-0.0231492
-0.0266611
-0.0303601
-0.0342479
-0.0383013
-0.0425127
-0.0468443
-0.0512803
-0.0557702
-0.0602918
-0.0647858
-0.0692256
-0.0735479
-0.0777244
-0.0816923
-0.0854369
-0.0889386
-0.0922641
-0.0955901
-0.0990736
-0.102827
-0.106899
-0.111122
-0.115359
-0.119378
-0.123016
-0.126146
-0.128707
-0.130712
-0.132189
-0.133193
-0.133771
-0.133974
-0.133873
-0.133559
-0.133141
-0.132813
-0.132615
-0.132528
-0.132523
-0.132526
0.123853
0.12364
0.123222
0.122701
0.122156
0.121799
0.121678
0.121686
0.121816
0.121896
0.121879
0.121584
0.120956
0.119814
0.118114
0.11578
0.112829
0.10944
0.105705
0.101987
0.0983718
0.0951293
0.0922311
0.0895213
0.0869041
0.0841169
0.0811142
0.0778949
0.074456
0.0708578
0.0671041
0.063259
0.0593259
0.0553687
0.0513899
0.0474488
0.0435465
0.039734
0.0360104
0.032415
0.0289441
0.0256227
0.0224445
0.0194181
0.0165342
0.0137853
0.0111591
0.00863318
0.00619275
0.00380373
0.00144936
-0.000911291
-0.00329591
-0.00574674
-0.00828118
-0.0109363
-0.0137282
-0.0166826
-0.0198132
-0.0231295
-0.026642
-0.0303404
-0.0342315
-0.0382843
-0.0425015
-0.0468323
-0.0512762
-0.0557654
-0.0602962
-0.0647895
-0.0692394
-0.0735609
-0.0777473
-0.0817146
-0.0854619
-0.0889631
-0.0922575
-0.095583
-0.0990381
-0.102791
-0.106889
-0.111112
-0.115394
-0.119413
-0.123076
-0.126207
-0.128765
-0.130769
-0.132235
-0.133238
-0.133807
-0.13401
-0.13389
-0.133575
-0.133126
-0.132798
-0.132582
-0.132519
-0.132523
-0.132526
0.123834
0.123617
0.123133
0.122581
0.122096
0.121695
0.121648
0.121631
0.121821
0.121893
0.121904
0.121601
0.121004
0.119856
0.118183
0.115851
0.112875
0.109486
0.105698
0.10198
0.0983289
0.0950865
0.0922163
0.089507
0.0869339
0.0841383
0.0811363
0.0779087
0.074463
0.0708574
0.0670965
0.0632452
0.0593051
0.0553433
0.0513579
0.0474143
0.0435064
0.0396935
0.0359657
0.0323719
0.0288986
0.0255809
0.0224022
0.0193813
0.0164988
0.0137569
0.0111339
0.00861602
0.00618015
0.00379976
0.0014508
-0.00090121
-0.00328027
-0.00572299
-0.00825246
-0.0109005
-0.0136887
-0.0166375
-0.0197663
-0.0230788
-0.0265919
-0.0302883
-0.0341825
-0.0382354
-0.0424581
-0.0467912
-0.0512425
-0.0557358
-0.0602755
-0.0647747
-0.0692342
-0.0735631
-0.077759
-0.0817346
-0.0854845
-0.0889943
-0.0922505
-0.0955754
-0.0989998
-0.102753
-0.106879
-0.111102
-0.115431
-0.11945
-0.123141
-0.126269
-0.128811
-0.13082
-0.132269
-0.133279
-0.133834
-0.134044
-0.133851
-0.133569
-0.132989
-0.132719
-0.1324
-0.132373
-0.132463
-0.13247
0.123726
0.123501
0.123016
0.122451
0.121963
0.121547
0.121496
0.12146
0.121645
0.12171
0.121715
0.121436
0.120834
0.119751
0.118075
0.115841
0.112866
0.109571
0.105779
0.102105
0.0984545
0.0952011
0.0923528
0.0895899
0.0870292
0.0841438
0.0811423
0.0778238
0.0743787
0.0706904
0.0669302
0.0630092
0.0590698
0.0550551
0.0510704
0.0470938
0.0431866
0.0393625
0.0356354
0.0320529
0.0285803
0.0252954
0.0221173
0.0191486
0.0162667
0.0135928
0.0109702
0.00853157
0.00609617
0.00380085
0.00145234
-0.000814402
-0.00319301
-0.00555592
-0.00808491
-0.0106638
-0.0134515
-0.0163463
-0.0194746
-0.0227517
-0.0262642
-0.0299463
-0.0338398
-0.0379004
-0.0421223
-0.046485
-0.0509355
-0.0554788
-0.0600177
-0.0645848
-0.0690435
-0.0734549
-0.0776501
-0.0817187
-0.0854678
-0.0890722
-0.0923186
-0.0957044
-0.0991079
-0.102881
-0.107005
-0.111198
-0.11553
-0.119468
-0.123159
-0.126193
-0.128738
-0.130673
-0.132127
-0.133092
-0.133652
-0.13384
-0.133653
-0.133363
-0.132789
-0.132519
-0.132204
-0.132184
-0.132275
-0.13229
0.123609
0.123375
0.122889
0.12231
0.121819
0.121388
0.121331
0.121275
0.121454
0.121511
0.121511
0.121257
0.12065
0.119638
0.117958
0.11583
0.112854
0.109667
0.105876
0.10227
0.0986223
0.0953685
0.0925214
0.0896924
0.0871322
0.0841496
0.0811488
0.0777321
0.0742877
0.0705101
0.0667507
0.0627543
0.0588157
0.0547439
0.05076
0.0467476
0.0428413
0.0390051
0.0352788
0.0317085
0.0282365
0.0249872
0.0218097
0.0188974
0.016016
0.0134155
0.0107935
0.00844039
0.00600548
0.00380203
0.001454
-0.000720663
-0.00309879
-0.0053755
-0.00790398
-0.0104082
-0.0131954
-0.0160319
-0.0191595
-0.0223986
-0.0259103
-0.029577
-0.0334697
-0.0375387
-0.0417597
-0.0461544
-0.0506039
-0.0552013
-0.0597393
-0.0643798
-0.0688376
-0.0733381
-0.0775324
-0.0817015
-0.0854498
-0.0891564
-0.0924021
-0.095863
-0.0992652
-0.103052
-0.107173
-0.111314
-0.115644
-0.119488
-0.123179
-0.126111
-0.12866
-0.130514
-0.131973
-0.132889
-0.133456
-0.133619
-0.133439
-0.13314
-0.132573
-0.132302
-0.131992
-0.13198
-0.132073
-0.132095
0.123482
0.123239
0.122753
0.122158
0.121664
0.121216
0.121154
0.121076
0.121248
0.121297
0.12129
0.121064
0.120452
0.119515
0.117832
0.115818
0.112841
0.109771
0.105981
0.102449
0.0988036
0.0955493
0.0927036
0.089803
0.0872435
0.0841559
0.0811558
0.077633
0.0741894
0.0703155
0.0665569
0.0624791
0.0585413
0.0544077
0.0504247
0.0463739
0.0424684
0.0386192
0.0348937
0.0313365
0.0278653
0.0246543
0.0214775
0.0186261
0.0157453
0.0132241
0.0106027
0.00834193
0.00590755
0.00380331
0.00145579
-0.000619439
-0.00299705
-0.00518068
-0.0077086
-0.0101322
-0.0129188
-0.0156924
-0.0188193
-0.0220172
-0.0255282
-0.0291782
-0.03307
-0.0371481
-0.0413681
-0.0457973
-0.0502459
-0.0549016
-0.0594386
-0.0641585
-0.0686152
-0.073212
-0.0774054
-0.0816829
-0.0854304
-0.0892473
-0.0924923
-0.0960343
-0.099435
-0.103237
-0.107355
-0.111439
-0.115768
-0.119508
-0.1232
-0.126023
-0.128575
-0.130343
-0.131807
-0.13267
-0.133244
-0.133381
-0.133209
-0.1329
-0.13234
-0.132068
-0.131763
-0.131761
-0.131854
-0.131885
0.123345
0.123092
0.122605
0.121994
0.121496
0.12103
0.120962
0.120861
0.121026
0.121066
0.121052
0.120856
0.120237
0.119383
0.117696
0.115806
0.112827
0.109883
0.106095
0.102643
0.0989994
0.0957446
0.0929003
0.0899225
0.0873636
0.0841628
0.0811633
0.077526
0.0740832
0.0701052
0.0663475
0.0621819
0.058245
0.0540448
0.0500628
0.0459703
0.0420658
0.0382025
0.0344779
0.0309349
0.0274645
0.0242948
0.0211188
0.0183331
0.0154531
0.0130175
0.0103967
0.0082356
0.0058018
0.00380469
0.00145772
-0.000510134
-0.00288718
-0.0049703
-0.00749763
-0.00983421
-0.0126201
-0.0153257
-0.0184519
-0.0216054
-0.0251156
-0.0287475
-0.0326385
-0.0367263
-0.0409453
-0.0454118
-0.0498593
-0.0545781
-0.059114
-0.0639194
-0.0683751
-0.0730759
-0.0772682
-0.0816628
-0.0854094
-0.0893455
-0.0925897
-0.0962192
-0.0996184
-0.103436
-0.107552
-0.111574
-0.115901
-0.119531
-0.123224
-0.125928
-0.128483
-0.130159
-0.131628
-0.132434
-0.133015
-0.133124
-0.132959
-0.132641
-0.132089
-0.131816
-0.131516
-0.131523
-0.131618
-0.131658
0.123198
0.122934
0.122446
0.121817
0.121315
0.120829
0.120755
0.120628
0.120786
0.120817
0.120795
0.120631
0.120006
0.11924
0.117548
0.115792
0.112812
0.110004
0.106217
0.102852
0.0992108
0.0959554
0.0931127
0.0900516
0.0874932
0.0841701
0.0811715
0.0774105
0.0739686
0.0698782
0.0661215
0.0618609
0.0579251
0.0536529
0.0496719
0.0455345
0.041631
0.0377525
0.0340289
0.0305011
0.0270317
0.0239067
0.0207315
0.0180168
0.0151374
0.0127943
0.0101742
0.00812079
0.00568761
0.00380617
0.00145981
-0.000392102
-0.00276854
-0.00474313
-0.00726981
-0.00951239
-0.0122976
-0.0149298
-0.0180552
-0.0211607
-0.02467
-0.0282825
-0.0321724
-0.0362708
-0.0404888
-0.0449955
-0.0494419
-0.0542286
-0.0587634
-0.0636613
-0.0681158
-0.0729288
-0.0771201
-0.0816411
-0.0853868
-0.0894515
-0.0926948
-0.0964189
-0.0998164
-0.103651
-0.107765
-0.111719
-0.116045
-0.119555
-0.123249
-0.125825
-0.128384
-0.129959
-0.131435
-0.132179
-0.132767
-0.132846
-0.13269
-0.132361
-0.131817
-0.131543
-0.131249
-0.131267
-0.131363
-0.131412
0.123038
0.122762
0.122274
0.121626
0.12112
0.120613
0.120531
0.120377
0.120527
0.120547
0.120518
0.120388
0.119756
0.119086
0.11739
0.115777
0.112796
0.110135
0.10635
0.103077
0.099439
0.0961831
0.093342
0.0901909
0.0876333
0.0841781
0.0811803
0.0772858
0.0738448
0.0696331
0.0658774
0.0615144
0.0575796
0.0532297
0.0492497
0.045064
0.0411615
0.0372666
0.033544
0.0300328
0.0265643
0.0234876
0.0203132
0.0176752
0.0147966
0.0125533
0.00993389
0.00799681
0.0055643
0.00380778
0.00146206
-0.000264647
-0.00264043
-0.00449782
-0.0070238
-0.00916487
-0.0119493
-0.0145023
-0.0176269
-0.0206805
-0.0241888
-0.0277803
-0.0316692
-0.0357789
-0.0399958
-0.0445459
-0.0489911
-0.0538513
-0.0583848
-0.0633825
-0.0678359
-0.07277
-0.0769602
-0.0816177
-0.0853623
-0.089566
-0.0928084
-0.0966345
-0.10003
-0.103883
-0.107994
-0.111877
-0.1162
-0.119581
-0.123275
-0.125713
-0.128276
-0.129744
-0.131226
-0.131903
-0.1325
-0.132546
-0.1324
-0.132059
-0.131523
-0.131248
-0.13096
-0.13099
-0.131088
-0.131148
0.122755
0.122474
0.12188
0.121266
0.120775
0.120291
0.120179
0.120024
0.120148
0.120161
0.120108
0.120007
0.119389
0.118793
0.117176
0.115668
0.112793
0.11025
0.10654
0.103359
0.0997409
0.0964967
0.0936301
0.0904038
0.0877732
0.0842268
0.0811265
0.0771399
0.0736059
0.0693104
0.065474
0.0610404
0.0570417
0.0526383
0.0486149
0.0443959
0.040473
0.0365672
0.0328482
0.0293489
0.0259078
0.0228649
0.0197397
0.0171551
0.0143443
0.0121705
0.00963289
0.00777664
0.00543465
0.00376492
0.0015126
-0.000127134
-0.00241262
-0.00418855
-0.00663296
-0.00870339
-0.0114199
-0.0139178
-0.0169922
-0.0200096
-0.0234886
-0.0270653
-0.0309475
-0.0350646
-0.0392981
-0.0438778
-0.0483622
-0.0532728
-0.0578662
-0.0629326
-0.0674638
-0.0724815
-0.0767638
-0.0815155
-0.085364
-0.0896635
-0.0929873
-0.0968984
-0.100328
-0.104186
-0.108288
-0.112096
-0.116359
-0.119633
-0.123232
-0.125569
-0.128046
-0.129431
-0.130874
-0.131498
-0.132086
-0.132105
-0.131951
-0.131577
-0.131058
-0.13073
-0.130434
-0.130416
-0.130651
-0.130714
0.122327
0.122046
0.121444
0.120823
0.120343
0.119847
0.119659
0.119488
0.119524
0.119518
0.119447
0.119327
0.118814
0.118203
0.116845
0.115329
0.112843
0.1103
0.106968
0.103792
0.100349
0.0971095
0.0940853
0.0908606
0.0879024
0.0843572
0.0809461
0.0769607
0.0731437
0.0688497
0.0647673
0.0603351
0.0561413
0.0517393
0.0475825
0.0433649
0.039378
0.0354734
0.0317633
0.0282651
0.0249047
0.0218628
0.0188844
0.0163006
0.0136926
0.0115195
0.00922733
0.00737168
0.00530145
0.00363226
0.00166033
2.11273e-05
-0.00199325
-0.00376861
-0.00596827
-0.00803803
-0.0105513
-0.0130484
-0.0159735
-0.0189899
-0.0223826
-0.0259581
-0.0298225
-0.0339384
-0.0382243
-0.0428025
-0.0474076
-0.0523166
-0.0570935
-0.0621582
-0.0669271
-0.0719431
-0.076506
-0.0812561
-0.0854203
-0.0897184
-0.093385
-0.0972942
-0.100921
-0.104774
-0.108762
-0.112563
-0.116505
-0.119778
-0.123012
-0.125355
-0.127549
-0.128947
-0.130207
-0.13085
-0.131339
-0.131381
-0.131212
-0.130862
-0.130392
-0.130083
-0.129789
-0.12978
-0.130021
-0.130085
0.121873
0.121591
0.120983
0.120356
0.119866
0.119356
0.119099
0.118908
0.118851
0.118824
0.118733
0.118594
0.118193
0.117566
0.116487
0.114962
0.112897
0.110354
0.107429
0.10426
0.101005
0.0977713
0.0945768
0.0913539
0.0880419
0.0844979
0.0807512
0.0767672
0.0726447
0.0683522
0.0640042
0.0595736
0.055169
0.0507685
0.0464677
0.0422515
0.0381955
0.0342923
0.0305918
0.0270948
0.0238215
0.0207806
0.0179607
0.0153778
0.012989
0.0108166
0.0087894
0.00693439
0.00515762
0.003489
0.00181986
0.000181226
-0.00154039
-0.00331514
-0.00525051
-0.00731955
-0.00961337
-0.0121095
-0.0148734
-0.0178888
-0.0211883
-0.0247626
-0.0286078
-0.0327222
-0.0370647
-0.0416414
-0.0463767
-0.0512841
-0.056259
-0.061322
-0.0663475
-0.0713617
-0.0762276
-0.080976
-0.085481
-0.0897777
-0.0938144
-0.0977217
-0.101562
-0.105408
-0.109273
-0.113068
-0.116662
-0.119934
-0.122775
-0.125125
-0.127012
-0.128425
-0.129486
-0.130149
-0.130533
-0.1306
-0.130415
-0.130089
-0.129662
-0.129373
-0.129073
-0.129073
-0.129342
-0.129407
0.121506
0.121224
0.120505
0.119872
0.119284
0.118756
0.118432
0.118219
0.118116
0.118066
0.118023
0.117864
0.117682
0.117041
0.116339
0.114809
0.113155
0.110616
0.107994
0.104832
0.101683
0.0984553
0.0951397
0.0919188
0.0883024
0.0847597
0.080629
0.0766465
0.0721558
0.0678648
0.0631911
0.0587621
0.0540927
0.0496939
0.0452049
0.0409903
0.0368341
0.0329324
0.0292258
0.0257301
0.0225449
0.0195052
0.0168618
0.0142798
0.0121439
0.00997239
0.00825747
0.00640316
0.00497674
0.00330876
0.00200419
0.000366172
-0.00100148
-0.00277556
-0.00439152
-0.00645978
-0.00849027
-0.0109855
-0.0135597
-0.0165739
-0.0197702
-0.0233431
-0.0271786
-0.0312915
-0.0357192
-0.0402942
-0.0452056
-0.0501111
-0.0553438
-0.0604049
-0.0657561
-0.0707685
-0.0760111
-0.0807578
-0.0856657
-0.0899607
-0.0943293
-0.0982346
-0.102232
-0.106073
-0.109879
-0.113665
-0.11701
-0.120275
-0.122751
-0.125103
-0.126629
-0.128053
-0.128859
-0.12954
-0.129784
-0.129873
-0.129613
-0.129313
-0.12881
-0.128545
-0.128261
-0.128272
-0.128637
-0.128703
0.121107
0.120823
0.119966
0.119306
0.118654
0.118099
0.117711
0.117473
0.117322
0.117247
0.117261
0.117081
0.11714
0.116485
0.116203
0.114669
0.113465
0.110931
0.108616
0.105463
0.102408
0.0991869
0.0957536
0.0925347
0.0885895
0.0850483
0.0805018
0.076521
0.0716305
0.0673413
0.0623136
0.0578865
0.052929
0.048532
0.0438381
0.0396252
0.0353594
0.0314593
0.0277452
0.024251
0.0211607
0.0181222
0.0156696
0.0130887
0.0112269
0.0090562
0.00767989
0.00582633
0.00478006
0.00311275
0.00220388
0.000566532
-0.000416852
-0.00219021
-0.00345944
-0.00552686
-0.00727157
-0.00976579
-0.0121344
-0.0151474
-0.018232
-0.0218035
-0.025629
-0.0297402
-0.0342613
-0.0388344
-0.0439379
-0.0488414
-0.0543547
-0.0594138
-0.0651194
-0.0701297
-0.075782
-0.0805267
-0.0858714
-0.0901647
-0.094895
-0.0987979
-0.102952
-0.106786
-0.110544
-0.114321
-0.117413
-0.120673
-0.122749
-0.125103
-0.126229
-0.127664
-0.128194
-0.128893
-0.128987
-0.1291
-0.128748
-0.128476
-0.127883
-0.127648
-0.127363
-0.127393
-0.127873
-0.127941
0.120456
0.120152
0.119291
0.118606
0.117938
0.117338
0.116926
0.116581
0.116406
0.116226
0.11622
0.116016
0.116076
0.115545
0.115304
0.114048
0.112907
0.110705
0.108434
0.105505
0.102457
0.0992141
0.0957284
0.0922227
0.0881564
0.0841846
0.0796076
0.0752085
0.070289
0.065637
0.0605838
0.0558704
0.0508927
0.0463038
0.0415958
0.0372984
0.0330258
0.0291556
0.0254425
0.0220933
0.0190117
0.0162273
0.0137906
0.0115604
0.00972056
0.00797842
0.00662899
0.00525868
0.00424235
0.00308653
0.00220881
0.00108315
0.000130009
-0.00115925
-0.00240101
-0.00403781
-0.00575959
-0.00789908
-0.0102507
-0.0130028
-0.0160775
-0.0194941
-0.0233174
-0.0273866
-0.0319131
-0.0365575
-0.0416738
-0.0467565
-0.0522894
-0.0576251
-0.0633559
-0.0687252
-0.074407
-0.0795741
-0.0849506
-0.0896892
-0.0945417
-0.0987582
-0.102971
-0.106867
-0.110626
-0.114225
-0.117282
-0.120238
-0.122256
-0.124323
-0.125406
-0.126658
-0.127181
-0.127805
-0.127909
-0.128015
-0.127669
-0.127417
-0.126846
-0.126612
-0.126349
-0.126394
-0.126878
-0.126965
0.119752
0.119426
0.118561
0.117851
0.117165
0.116516
0.116077
0.115616
0.11541
0.11511
0.115071
0.114847
0.114876
0.114506
0.114238
0.113321
0.112163
0.110352
0.108074
0.105394
0.102345
0.0990463
0.0955614
0.0916909
0.0876265
0.0831534
0.0785787
0.0736926
0.0687754
0.0637011
0.0586503
0.0536038
0.0486284
0.0438161
0.0391103
0.0347144
0.0304438
0.0266083
0.0228969
0.0197165
0.0166363
0.0141476
0.0117121
0.00988966
0.00805074
0.00680718
0.00545839
0.00465034
0.00363449
0.00307377
0.00219647
0.00166614
0.000713457
-1.25595e-05
-0.00125373
-0.00238951
-0.00411047
-0.00583728
-0.00818783
-0.0106364
-0.0137096
-0.0169463
-0.0207678
-0.0247882
-0.0293125
-0.03404
-0.0391539
-0.0444454
-0.0499756
-0.0556334
-0.0613615
-0.0671486
-0.0728277
-0.0784866
-0.0838605
-0.0891174
-0.0939676
-0.0985835
-0.102795
-0.1068
-0.110559
-0.113967
-0.117029
-0.119632
-0.121665
-0.123383
-0.124489
-0.125508
-0.126063
-0.126584
-0.126723
-0.126812
-0.126504
-0.126262
-0.125726
-0.125492
-0.125254
-0.125314
-0.125804
-0.125911
0.118992
0.118643
0.117774
0.117035
0.11633
0.115629
0.115161
0.114575
0.114335
0.113904
0.11383
0.113584
0.11358
0.113383
0.113088
0.112536
0.11136
0.109971
0.107685
0.105274
0.102224
0.0988651
0.0953811
0.0911166
0.0870543
0.08204
0.0774675
0.0720557
0.067141
0.0616107
0.0565625
0.0511562
0.0461833
0.0411297
0.0364264
0.031924
0.0276557
0.0238576
0.0201481
0.0171498
0.0140712
0.0119018
0.00946751
0.00808558
0.00624759
0.00554244
0.00419433
0.00399342
0.0029781
0.00305999
0.00218313
0.00229569
0.00134349
0.00122568
-1.48558e-05
-0.0006096
-0.00232968
-0.00361087
-0.00596022
-0.00808099
-0.0111526
-0.0141951
-0.0180146
-0.0219824
-0.0265044
-0.0313216
-0.0364328
-0.0419497
-0.0474771
-0.0534827
-0.0592079
-0.0654462
-0.0711223
-0.0773122
-0.0826834
-0.0885
-0.0933477
-0.098395
-0.102605
-0.106728
-0.110487
-0.113689
-0.116757
-0.118977
-0.121026
-0.122367
-0.123499
-0.124268
-0.124855
-0.125266
-0.125443
-0.125513
-0.125245
-0.125015
-0.124517
-0.124284
-0.124072
-0.124148
-0.124645
-0.124773
0.117954
0.117598
0.116765
0.116027
0.115366
0.114636
0.114093
0.113441
0.113055
0.112547
0.112304
0.112025
0.111895
0.111749
0.111454
0.111028
0.110022
0.108779
0.106731
0.104403
0.10145
0.0980369
0.0943517
0.089908
0.0854199
0.0801962
0.07525
0.0696349
0.0643913
0.0586849
0.0533825
0.0478377
0.0427014
0.0375554
0.0327912
0.0282489
0.0240288
0.0202467
0.0166958
0.0137697
0.010955
0.00891096
0.00683513
0.00562555
0.00422485
0.00373004
0.00287796
0.00291402
0.00243047
0.00276307
0.00242913
0.00279248
0.00236938
0.00248893
0.0017399
0.00135649
6.88587e-05
-0.00103801
-0.00303228
-0.00502435
-0.00783244
-0.010798
-0.0144552
-0.0184011
-0.0228668
-0.0277172
-0.0328781
-0.038481
-0.0441589
-0.050298
-0.0562653
-0.0626775
-0.0686741
-0.075069
-0.0808118
-0.0868448
-0.0921241
-0.0973677
-0.101806
-0.10601
-0.10971
-0.112856
-0.115707
-0.117798
-0.119651
-0.12086
-0.121914
-0.122601
-0.123205
-0.123596
-0.123837
-0.123928
-0.123748
-0.123545
-0.123147
-0.122935
-0.122725
-0.12281
-0.123255
-0.12339
0.116822
0.116465
0.11568
0.114927
0.114304
0.113543
0.112898
0.112205
0.111582
0.111028
0.110521
0.110192
0.109909
0.109711
0.109479
0.109006
0.108287
0.107011
0.10531
0.102963
0.100106
0.0966853
0.0926451
0.0882019
0.0830874
0.0778669
0.0722536
0.0666419
0.0608154
0.0551125
0.0493542
0.0438127
0.0383764
0.0332336
0.0283469
0.0238073
0.0196552
0.0158754
0.0125854
0.0096611
0.00729275
0.00524994
0.00378793
0.00257906
0.00193234
0.00143783
0.00144495
0.00148099
0.00192126
0.00225366
0.00286437
0.0032275
0.00372541
0.00384489
0.00395055
0.00356737
0.00302952
0.00192331
0.000541282
-0.0014496
-0.00380824
-0.00677206
-0.0101593
-0.0141028
-0.018486
-0.0233335
-0.0285981
-0.0341976
-0.0401555
-0.046291
-0.052697
-0.0591053
-0.0656748
-0.0720658
-0.0784769
-0.0845062
-0.0904311
-0.0956736
-0.100519
-0.10473
-0.108403
-0.111565
-0.11411
-0.116232
-0.11777
-0.119023
-0.119903
-0.120641
-0.121222
-0.121667
-0.121986
-0.122132
-0.122075
-0.121925
-0.12161
-0.121441
-0.121193
-0.121299
-0.121724
-0.12186
0.115771
0.115414
0.11448
0.113718
0.113134
0.112333
0.111593
0.110849
0.109937
0.109331
0.108526
0.108142
0.107764
0.107508
0.107524
0.107005
0.106753
0.105447
0.104139
0.101777
0.0990095
0.0955822
0.0911236
0.0866814
0.0807337
0.0755149
0.0690791
0.0634696
0.0569377
0.0512373
0.0449126
0.0393739
0.0335466
0.0284068
0.0233328
0.0187963
0.0146788
0.0109019
0.00787476
0.00495334
0.00306961
0.00102954
0.000254983
-0.000951265
-0.000738416
-0.0012305
-0.000232739
-0.000194395
0.00131884
0.00165345
0.00336586
0.00373119
0.00530427
0.005426
0.00652707
0.00614624
0.00647574
0.00537207
0.00468873
0.00270055
0.000841311
-0.00211951
-0.00522619
-0.00916656
-0.0134956
-0.0183399
-0.0237725
-0.0293687
-0.035702
-0.0418343
-0.048798
-0.0552032
-0.06248
-0.0688682
-0.0761172
-0.0821442
-0.0889329
-0.0941739
-0.0994851
-0.103701
-0.107346
-0.110523
-0.112731
-0.11488
-0.115968
-0.117263
-0.117836
-0.11863
-0.119167
-0.119668
-0.120098
-0.120301
-0.120338
-0.120251
-0.119888
-0.119765
-0.119459
-0.119574
-0.12013
-0.120268
0.114228
0.113898
0.112957
0.112289
0.111672
0.110915
0.110129
0.10922
0.108252
0.107304
0.106436
0.105675
0.105234
0.104735
0.104695
0.104163
0.103878
0.102721
0.101388
0.0991024
0.0963034
0.0926116
0.0880822
0.0829671
0.0769183
0.0708507
0.0644194
0.0580431
0.0515158
0.0452079
0.0388877
0.0329393
0.0271161
0.0217947
0.0167243
0.0122539
0.00813926
0.00468395
0.00165889
-0.000691189
-0.00257361
-0.00381096
-0.00458497
-0.00478777
-0.00457507
-0.00390416
-0.00290709
-0.00159565
-8.34726e-05
0.0015794
0.00329061
0.00498199
0.00655398
0.00794286
0.00904317
0.00981752
0.0101468
0.0100395
0.00935668
0.00816776
0.00630981
0.00392276
0.00081825
-0.00279113
-0.00711713
-0.011879
-0.0173078
-0.0230646
-0.0293935
-0.0359129
-0.0428718
-0.0498651
-0.0571368
-0.0642803
-0.0715242
-0.0784022
-0.0852891
-0.0912251
-0.0966083
-0.101127
-0.104806
-0.107932
-0.110167
-0.112141
-0.113259
-0.114469
-0.115094
-0.115969
-0.11657
-0.117268
-0.117765
-0.118168
-0.118269
-0.118284
-0.117981
-0.117821
-0.117558
-0.117598
-0.118164
-0.11828
0.112562
0.112261
0.111308
0.110745
0.110094
0.109385
0.108548
0.107461
0.106434
0.105113
0.10418
0.103012
0.1025
0.101741
0.101628
0.101082
0.100731
0.0997248
0.0983414
0.0961102
0.0932805
0.0892589
0.0847189
0.0788427
0.0727983
0.0658141
0.0593876
0.0521834
0.045661
0.0386972
0.0323817
0.025991
0.0201721
0.0146546
0.00958806
0.0051892
0.00107764
-0.00203048
-0.00505327
-0.00678637
-0.00866737
-0.00903791
-0.00981135
-0.00893058
-0.00871804
-0.00679128
-0.00579497
-0.00310878
-0.00159774
0.00149944
0.00320936
0.00633267
0.00790347
0.0106607
0.0117602
0.0137819
0.0141109
0.0150797
0.0143973
0.0140715
0.0122149
0.0104474
0.00734527
0.00409331
-0.000229431
-0.00490228
-0.010327
-0.0162571
-0.0225812
-0.0295188
-0.0364724
-0.0441008
-0.051367
-0.059326
-0.0665644
-0.0743614
-0.0812434
-0.0879656
-0.0933584
-0.0982504
-0.101959
-0.10506
-0.107343
-0.109139
-0.110321
-0.111435
-0.112133
-0.11309
-0.113766
-0.114672
-0.115244
-0.115863
-0.116036
-0.11616
-0.115922
-0.115722
-0.115505
-0.115463
-0.116042
-0.116134
0.110354
0.110056
0.109343
0.10877
0.108254
0.107516
0.106669
0.105501
0.104278
0.102825
0.101498
0.100187
0.0991655
0.098289
0.0976743
0.0970506
0.0963612
0.0953007
0.0937379
0.0914359
0.0883278
0.0841717
0.0791097
0.0730531
0.0663121
0.0591568
0.0520355
0.0446773
0.03757
0.030485
0.0237827
0.0173115
0.0113321
0.00578067
0.000798353
-0.00358385
-0.00735911
-0.0103985
-0.0128376
-0.0144512
-0.0155173
-0.0157213
-0.0154762
-0.0143882
-0.0129904
-0.010824
-0.00852
-0.00557191
-0.00268021
0.000690024
0.00380167
0.00719756
0.0101389
0.0131567
0.0155458
0.0178055
0.0192975
0.0204719
0.0207864
0.0206263
0.0195683
0.0179208
0.0153954
0.0122142
0.00823208
0.00357949
-0.0017451
-0.00770448
-0.0141636
-0.0211768
-0.028486
-0.0362311
-0.0440505
-0.0521607
-0.060069
-0.068037
-0.0756046
-0.0825127
-0.0884381
-0.0934735
-0.0974619
-0.100639
-0.103046
-0.104889
-0.106272
-0.107443
-0.108451
-0.109494
-0.110494
-0.111511
-0.11236
-0.113092
-0.113463
-0.113669
-0.113552
-0.113399
-0.113134
-0.113116
-0.113464
-0.113554
0.108194
0.107894
0.107176
0.106589
0.106456
0.105655
0.104856
0.103625
0.101961
0.100433
0.0983939
0.0969955
0.0952638
0.0942867
0.0932522
0.0925256
0.0917544
0.0906056
0.0890529
0.0866888
0.0833409
0.0791519
0.0732067
0.067148
0.0590616
0.0519126
0.0435952
0.0362435
0.028201
0.0211222
0.0137559
0.00729029
0.00096605
-0.00458049
-0.00955427
-0.0139326
-0.0173282
-0.020365
-0.0220535
-0.0236657
-0.0236296
-0.0238334
-0.0221708
-0.0210838
-0.0180062
-0.0158417
-0.0116618
-0.00871632
-0.0038287
-0.000461437
0.00468435
0.00807725
0.013008
0.0160232
0.0202767
0.0225344
0.025693
0.0268665
0.0285872
0.0284273
0.028466
0.02682
0.0250479
0.0218695
0.0182799
0.0136315
0.00833757
0.00238344
-0.00439184
-0.0113988
-0.0193415
-0.0270797
-0.0358075
-0.0439105
-0.052997
-0.060958
-0.0698682
-0.0767775
-0.0836083
-0.0886747
-0.0929302
-0.0961665
-0.0985462
-0.100475
-0.101837
-0.103109
-0.104345
-0.105491
-0.106968
-0.108081
-0.109437
-0.110257
-0.110946
-0.111231
-0.111032
-0.110954
-0.110356
-0.110355
-0.110719
-0.110812
0.105285
0.105102
0.104363
0.104115
0.103935
0.103441
0.10259
0.101313
0.0995559
0.0975901
0.0954195
0.0933003
0.0914287
0.0896461
0.0884821
0.087063
0.0861903
0.0845231
0.0828851
0.0800258
0.0765875
0.0716699
0.0655755
0.0584709
0.0502135
0.0419405
0.0335605
0.0252709
0.0171813
0.00943433
0.0020357
-0.00478208
-0.0111213
-0.0166707
-0.0216405
-0.0256539
-0.0290257
-0.0313282
-0.0329731
-0.0334971
-0.0333985
-0.0321923
-0.0304506
-0.0276787
-0.024508
-0.0204434
-0.0161601
-0.0111684
-0.00617099
-0.000686544
0.00457114
0.0100747
0.015115
0.0201581
0.0245145
0.0286461
0.0318971
0.0347265
0.0365258
0.0377505
0.0378515
0.0372772
0.0355492
0.033102
0.0295373
0.0252661
0.0199778
0.0140483
0.00725995
-5.9935e-05
-0.00803267
-0.0163931
-0.025166
-0.0341608
-0.0433083
-0.052355
-0.0614329
-0.0693643
-0.076345
-0.0821174
-0.0864646
-0.0901356
-0.0925988
-0.0949144
-0.0963694
-0.0981389
-0.0994939
-0.101234
-0.102846
-0.104515
-0.106001
-0.107189
-0.107978
-0.10834
-0.108212
-0.107911
-0.107373
-0.10709
-0.107476
-0.107464
0.101944
0.101845
0.101262
0.101218
0.10111
0.10082
0.0999988
0.0986765
0.0968646
0.0945278
0.0921522
0.0894379
0.0872094
0.0847654
0.0831232
0.0811165
0.0797456
0.0775967
0.0755291
0.0721777
0.068358
0.0627591
0.0563401
0.0483559
0.039801
0.0306584
0.0219977
0.0129827
0.0046734
-0.00358974
-0.0110973
-0.0181864
-0.0245137
-0.0300636
-0.0348954
-0.0386245
-0.0417321
-0.0434642
-0.0447242
-0.0444038
-0.0438099
-0.04151
-0.0391777
-0.0350992
-0.031261
-0.0257233
-0.0207172
-0.0141393
-0.00838686
-0.00126127
0.00475982
0.0118995
0.0176877
0.024303
0.0293694
0.0349537
0.0388561
0.0429695
0.0453428
0.0476413
0.0482235
0.048481
0.047129
0.0452499
0.0419476
0.0379705
0.0328266
0.0269179
0.0201557
0.0125952
0.00453409
-0.00430663
-0.0132743
-0.0229586