/*--------------------------------*- C++ -*----------------------------------*\
| =========                 |                                                 |
| \\      /  F ield         | OpenFOAM: The Open Source CFD Toolbox           |
|  \\    /   O peration     | Version:  v2106                                 |
|   \\  /    A nd           | Website:  www.openfoam.com                      |
|    \\/     M anipulation  |                                                 |
\*---------------------------------------------------------------------------*/
FoamFile
{
    version     2.0;
    format      ascii;
    arch        "LSB;label=32;scalar=64";
    class       volScalarField;
    location    "0";
    object      expGpCoeffs47;
}
// * * * * * * * * * * * * * * * * * * * * * * * * * * * * * * * * * * * * * //

dimensions      [0 0 0 0 0 0 0];

internalField   nonuniform List<scalar> 
8000
(
0.00189631
0.00188657
0.00186978
0.00184701
0.00182649
0.00181059
0.00180372
0.00180417
0.00180654
0.00181005
0.00180558
0.00179246
0.0017616
0.00171241
0.00164061
0.00154614
0.00143664
0.0013122
0.00118944
0.00106879
0.000961902
0.000869697
0.000789422
0.000721898
0.000657835
0.000596993
0.000536142
0.000475402
0.000416502
0.000359644
0.000306612
0.000257535
0.000213336
0.000174066
0.000139837
0.000110636
8.59699e-05
6.57847e-05
4.92532e-05
3.63022e-05
2.60223e-05
1.83415e-05
1.2446e-05
8.27553e-06
5.19943e-06
3.17411e-06
1.76235e-06
9.35416e-07
4.11919e-07
1.73732e-07
3.4572e-08
-1.85812e-08
-1.46433e-07
-3.62907e-07
-8.79814e-07
-1.7187e-06
-3.2291e-06
-5.44771e-06
-8.95293e-06
-1.38041e-05
-2.08793e-05
-3.02634e-05
-4.31336e-05
-5.95969e-05
-8.09976e-05
-0.000107446
-0.000140157
-0.000179209
-0.000225244
-0.000278271
-0.000337892
-0.000404006
-0.000474858
-0.00055022
-0.000627746
-0.000707229
-0.000791091
-0.000879468
-0.000982159
-0.00109813
-0.00123225
-0.00138339
-0.00154174
-0.00170685
-0.0018614
-0.0020056
-0.00212779
-0.00222801
-0.00230446
-0.00235715
-0.00238886
-0.00239986
-0.00239699
-0.00238034
-0.00236235
-0.00234486
-0.00233361
-0.00232899
-0.00232737
-0.00232753
0.00189709
0.00188736
0.00187005
0.00184729
0.0018257
0.00180977
0.00180323
0.00180366
0.00180679
0.00181031
0.00180666
0.00179357
0.00176344
0.00171428
0.00164248
0.00154803
0.0014373
0.00131285
0.00118859
0.00106793
0.000960518
0.000868312
0.000788829
0.000721313
0.000657882
0.000597048
0.000536078
0.000475347
0.000416245
0.000359394
0.000306234
0.000257164
0.000212916
0.000173652
0.000139439
0.000110242
8.56366e-05
6.5454e-05
4.90008e-05
3.60514e-05
2.58483e-05
1.81684e-05
1.23361e-05
8.16618e-06
5.13586e-06
3.1108e-06
1.72906e-06
9.02232e-07
3.97647e-07
1.5949e-07
3.38994e-08
-1.92471e-08
-1.32602e-07
-3.49049e-07
-8.43503e-07
-1.68228e-06
-3.1543e-06
-5.37263e-06
-8.8158e-06
-1.36664e-05
-2.06516e-05
-3.00346e-05
-4.27918e-05
-5.92531e-05
-8.05366e-05
-0.000106982
-0.000139606
-0.000178652
-0.000224674
-0.000277694
-0.000337414
-0.00040352
-0.0004746
-0.000549952
-0.000627682
-0.000707156
-0.000790449
-0.000878815
-0.000980602
-0.00109658
-0.00123103
-0.00138219
-0.00154194
-0.00170708
-0.00186305
-0.00200724
-0.00212986
-0.00223006
-0.00230636
-0.00235901
-0.00239041
-0.00240136
-0.0023977
-0.00238101
-0.00236169
-0.00234421
-0.0023332
-0.00232859
-0.00232738
-0.00232754
0.00189794
0.00188821
0.00187034
0.00184758
0.00182485
0.00180889
0.0018027
0.00180311
0.00180706
0.00181058
0.00180783
0.00179477
0.00176542
0.0017163
0.00164451
0.00155008
0.001438
0.00131355
0.00118768
0.00106701
0.000959024
0.000866817
0.000788188
0.00072068
0.000657933
0.000597107
0.00053601
0.000475287
0.000415967
0.000359124
0.000305827
0.000256764
0.000212464
0.000173204
0.000139011
0.000109817
8.52767e-05
6.50969e-05
4.87283e-05
3.57807e-05
2.56603e-05
1.79815e-05
1.22175e-05
8.04811e-06
5.06722e-06
3.04244e-06
1.69311e-06
8.66399e-07
3.82235e-07
1.4411e-07
3.31731e-08
-1.99661e-08
-1.17667e-07
-3.34084e-07
-8.04292e-07
-1.64295e-06
-3.07354e-06
-5.29156e-06
-8.66773e-06
-1.35177e-05
-2.04058e-05
-2.97875e-05
-4.24227e-05
-5.88817e-05
-8.00388e-05
-0.000106481
-0.00013901
-0.000178051
-0.000224058
-0.000277071
-0.000336898
-0.000402995
-0.00047432
-0.000549662
-0.000627613
-0.000707076
-0.000789756
-0.00087811
-0.000978921
-0.0010949
-0.00122972
-0.0013809
-0.00154216
-0.00170732
-0.00186482
-0.00200901
-0.0021321
-0.00223227
-0.0023084
-0.00236101
-0.00239209
-0.00240299
-0.00239846
-0.00238174
-0.00236098
-0.00234352
-0.00233277
-0.00232816
-0.00232739
-0.00232756
0.00189886
0.00188912
0.00187066
0.0018479
0.00182393
0.00180794
0.00180212
0.00180252
0.00180735
0.00181088
0.00180909
0.00179606
0.00176756
0.00171848
0.00164669
0.00155229
0.00143876
0.0013143
0.00118669
0.001066
0.000957411
0.000865203
0.000787496
0.000719998
0.000657988
0.000597172
0.000535936
0.000475222
0.000415667
0.000358832
0.000305387
0.000256331
0.000211974
0.000172721
0.000138548
0.000109359
8.48881e-05
6.47113e-05
4.8434e-05
3.54883e-05
2.54573e-05
1.77797e-05
1.20893e-05
7.92061e-06
4.9931e-06
2.96862e-06
1.65429e-06
8.27705e-07
3.65592e-07
1.27503e-07
3.23887e-08
-2.07425e-08
-1.0154e-07
-3.17925e-07
-7.6195e-07
-1.60049e-06
-2.98632e-06
-5.20401e-06
-8.50784e-06
-1.3357e-05
-2.01404e-05
-2.95207e-05
-4.20242e-05
-5.84807e-05
-7.95013e-05
-0.000105939
-0.000138367
-0.000177403
-0.000223394
-0.000276399
-0.000336341
-0.000402427
-0.000474018
-0.000549349
-0.000627539
-0.00070699
-0.000789007
-0.00087735
-0.000977106
-0.00109308
-0.0012283
-0.0013795
-0.0015424
-0.00170758
-0.00186673
-0.00201092
-0.00213451
-0.00223465
-0.00231061
-0.00236318
-0.00239389
-0.00240475
-0.00239929
-0.00238253
-0.00236021
-0.00234277
-0.0023323
-0.0023277
-0.00232741
-0.00232757
0.00189984
0.00189011
0.00187099
0.00184748
0.00182294
0.00180691
0.0018015
0.00180188
0.00180766
0.00181121
0.00181045
0.00179745
0.00176988
0.00172084
0.00164905
0.00155467
0.00143958
0.00131512
0.00118562
0.00106492
0.000955669
0.00086346
0.000786749
0.000719261
0.000658048
0.000597241
0.000535857
0.000475152
0.000415343
0.000358517
0.000304912
0.000255864
0.000211446
0.000172199
0.000138047
0.000108863
8.44684e-05
6.42948e-05
4.81161e-05
3.51725e-05
2.52382e-05
1.75617e-05
1.1951e-05
7.78293e-06
4.91306e-06
2.8889e-06
1.61238e-06
7.85922e-07
3.4762e-07
1.0957e-07
3.15418e-08
-2.15809e-08
-8.41256e-08
-3.00475e-07
-7.16228e-07
-1.55463e-06
-2.89214e-06
-5.10948e-06
-8.33518e-06
-1.31836e-05
-1.98537e-05
-2.92325e-05
-4.15938e-05
-5.80477e-05
-7.89208e-05
-0.000105354
-0.000137673
-0.000176702
-0.000222676
-0.000275672
-0.000335739
-0.000401815
-0.000473692
-0.000549011
-0.000627459
-0.000706897
-0.000788199
-0.000876528
-0.000975147
-0.00109112
-0.00122677
-0.00137799
-0.00154266
-0.00170786
-0.0018688
-0.00201299
-0.00213712
-0.00223723
-0.00231299
-0.00236552
-0.00239585
-0.00240665
-0.00240018
-0.00238338
-0.00235939
-0.00234195
-0.00233061
-0.0023272
-0.00232743
-0.00232759
0.00189904
0.00188915
0.00186708
0.00184225
0.00182029
0.00180244
0.00180022
0.0017995
0.00180788
0.00181111
0.00181158
0.00179822
0.00177185
0.00172257
0.00165148
0.00155718
0.00144047
0.001316
0.00118447
0.00106376
0.000953789
0.000861577
0.000785943
0.000718465
0.000658336
0.000597327
0.0005358
0.000474954
0.000414901
0.000358006
0.000304247
0.00025519
0.000210714
0.000171498
0.000137368
0.000108233
8.3912e-05
6.37896e-05
4.77066e-05
3.48055e-05
2.49648e-05
1.73184e-05
1.17847e-05
7.63513e-06
4.82105e-06
2.80659e-06
1.56663e-06
7.44286e-07
3.29018e-07
9.21219e-08
3.06194e-08
-2.22548e-08
-6.71491e-08
-2.82261e-07
-6.70672e-07
-1.50446e-06
-2.79522e-06
-5.00128e-06
-8.15138e-06
-1.29779e-05
-1.95385e-05
-2.88815e-05
-4.11051e-05
-5.75097e-05
-7.82397e-05
-0.000104618
-0.000136829
-0.000175812
-0.000221768
-0.000274751
-0.000334936
-0.000401059
-0.000473213
-0.000548662
-0.000627358
-0.000707008
-0.000787326
-0.000875641
-0.00097303
-0.00108901
-0.00122511
-0.00137635
-0.00154294
-0.00170817
-0.001871
-0.00201511
-0.00213918
-0.00223945
-0.00231472
-0.0023676
-0.00239732
-0.0024085
-0.00239824
-0.00238308
-0.00235244
-0.00233796
-0.00232148
-0.00231985
-0.0023244
-0.00232478
0.00189419
0.00188399
0.0018619
0.00183661
0.00181452
0.00179615
0.00179372
0.00179226
0.00180041
0.00180334
0.00180358
0.00179125
0.00176468
0.00171822
0.00164698
0.00155671
0.00144002
0.00131886
0.00118718
0.00106748
0.000957655
0.000864644
0.000789721
0.000720489
0.000660724
0.000597527
0.000536011
0.000473606
0.000413564
0.000355867
0.000302118
0.000252892
0.000208424
0.000169465
0.000135342
0.000106673
8.23561e-05
6.27303e-05
4.66503e-05
3.41681e-05
2.43292e-05
1.69818e-05
1.14491e-05
7.48367e-06
4.67012e-06
2.75252e-06
1.5128e-06
7.31549e-07
3.16359e-07
9.10415e-08
2.95505e-08
-2.08458e-08
-6.57316e-08
-2.68405e-07
-6.56743e-07
-1.44425e-06
-2.73478e-06
-4.82791e-06
-7.97742e-06
-1.25855e-05
-1.91449e-05
-2.8134e-05
-4.03553e-05
-5.62771e-05
-7.70033e-05
-0.000102846
-0.000135051
-0.000173613
-0.000219561
-0.000272489
-0.000332663
-0.000399379
-0.000471519
-0.000548439
-0.00062712
-0.00070909
-0.000789064
-0.000879463
-0.000976092
-0.00109332
-0.00122919
-0.00137994
-0.00154665
-0.00170884
-0.00187171
-0.00201142
-0.00213563
-0.00223209
-0.00230758
-0.00235802
-0.00238803
-0.00239805
-0.00238811
-0.00237265
-0.00234232
-0.00232789
-0.00231162
-0.00231038
-0.00231498
-0.0023157
0.00188895
0.00187841
0.0018563
0.00183051
0.00180829
0.00178936
0.00178671
0.00178445
0.00179234
0.00179495
0.00179494
0.00178373
0.00175694
0.00171351
0.00164213
0.0015562
0.00143946
0.0013222
0.00119056
0.00107269
0.000962934
0.00086934
0.000794451
0.000723055
0.000663303
0.000597742
0.000536239
0.000472151
0.000412121
0.000353558
0.00029982
0.000250411
0.000205952
0.000167271
0.000133154
0.000104988
8.06761e-05
6.15865e-05
4.55097e-05
3.34798e-05
2.36429e-05
1.66183e-05
1.10868e-05
7.32012e-06
4.50714e-06
2.69414e-06
1.45467e-06
7.17794e-07
3.02689e-07
8.98748e-08
2.83962e-08
-1.93244e-08
-6.4201e-08
-2.53443e-07
-6.41702e-07
-1.37924e-06
-2.6695e-06
-4.6407e-06
-7.78957e-06
-1.21618e-05
-1.87198e-05
-2.73268e-05
-3.95457e-05
-5.49462e-05
-7.56682e-05
-0.000100933
-0.000133132
-0.00017124
-0.000217178
-0.000270046
-0.000330208
-0.000397564
-0.000469689
-0.000548197
-0.000626862
-0.000711339
-0.000791296
-0.00088426
-0.00098085
-0.00109921
-0.00123501
-0.00138443
-0.00155108
-0.00170957
-0.00187248
-0.00200744
-0.0021318
-0.00222415
-0.00229988
-0.00234767
-0.00237799
-0.00238676
-0.00237718
-0.00236138
-0.00233138
-0.00231702
-0.00230098
-0.00230016
-0.00230482
-0.0023059
0.0018833
0.0018724
0.00185025
0.00182393
0.00180156
0.00178203
0.00177914
0.00177601
0.00178363
0.00178589
0.00178561
0.0017756
0.00174858
0.00170843
0.00163689
0.00155566
0.00143886
0.0013258
0.0011942
0.00107832
0.000968636
0.000874412
0.000799559
0.000725826
0.000666088
0.000597975
0.000536485
0.00047058
0.000410563
0.000351065
0.000297339
0.000247731
0.000203282
0.000164901
0.000130792
0.000103168
7.88618e-05
6.03513e-05
4.42781e-05
3.27365e-05
2.29017e-05
1.62258e-05
1.06955e-05
7.14351e-06
4.33115e-06
2.6311e-06
1.3919e-06
7.02942e-07
2.87927e-07
8.86149e-08
2.71499e-08
-1.76814e-08
-6.25483e-08
-2.37286e-07
-6.2546e-07
-1.30904e-06
-2.59902e-06
-4.43854e-06
-7.58672e-06
-1.17043e-05
-1.82608e-05
-2.64551e-05
-3.86713e-05
-5.3509e-05
-7.42264e-05
-9.88666e-05
-0.000131059
-0.000168676
-0.000214605
-0.000267409
-0.000327557
-0.000395604
-0.000467713
-0.000547937
-0.000626585
-0.000713767
-0.000793706
-0.000889439
-0.000985989
-0.00110557
-0.00124129
-0.00138928
-0.00155587
-0.00171037
-0.00187331
-0.00200314
-0.00212766
-0.00221557
-0.00229156
-0.00233649
-0.00236715
-0.00237457
-0.00236537
-0.00234922
-0.00231958
-0.00230527
-0.00228948
-0.00228912
-0.00229384
-0.00229532
0.00187719
0.0018659
0.00184373
0.00181682
0.00179429
0.00177411
0.00177097
0.00176689
0.00177422
0.00177611
0.00177554
0.00176682
0.00173955
0.00170295
0.00163124
0.00155507
0.00143822
0.00132969
0.00119814
0.0010844
0.000974792
0.000879889
0.000805076
0.000728819
0.000669094
0.000598226
0.00053675
0.000468883
0.00040888
0.000348372
0.000294659
0.000244838
0.0002004
0.000162342
0.000128241
0.000101203
7.69028e-05
5.90175e-05
4.29481e-05
3.19339e-05
2.21014e-05
1.5802e-05
1.0273e-05
6.9528e-06
4.14111e-06
2.56302e-06
1.32412e-06
6.86903e-07
2.71987e-07
8.72545e-08
2.5804e-08
-1.59073e-08
-6.07635e-08
-2.19839e-07
-6.07922e-07
-1.23323e-06
-2.52291e-06
-4.22024e-06
-7.36768e-06
-1.12102e-05
-1.77652e-05
-2.55139e-05
-3.77272e-05
-5.1957e-05
-7.26695e-05
-9.66357e-05
-0.00012882
-0.000165909
-0.000211826
-0.00026456
-0.000324695
-0.000393487
-0.00046558
-0.000547655
-0.000626285
-0.000716389
-0.000796309
-0.000895033
-0.000991537
-0.00111245
-0.00124808
-0.00139452
-0.00156104
-0.00171122
-0.00187421
-0.0019985
-0.00212319
-0.0022063
-0.00228258
-0.00232442
-0.00235545
-0.00236141
-0.00235262
-0.00233609
-0.00230683
-0.0022926
-0.00227707
-0.00227721
-0.00228199
-0.00228389
0.00187059
0.00185889
0.00183668
0.00180915
0.00178645
0.00176556
0.00176214
0.00175705
0.00176406
0.00176555
0.00176467
0.00175735
0.0017298
0.00169703
0.00162513
0.00155443
0.00143752
0.00133389
0.0012024
0.00109097
0.00098144
0.000885803
0.000811032
0.00073205
0.000672341
0.000598497
0.000537037
0.00046705
0.000407063
0.000345465
0.000291765
0.000241713
0.000197287
0.000159579
0.000125486
9.90817e-05
7.47873e-05
5.75772e-05
4.15119e-05
3.10672e-05
2.12372e-05
1.53443e-05
9.81668e-06
6.74687e-06
3.93589e-06
2.48951e-06
1.25092e-06
6.69585e-07
2.54774e-07
8.57854e-08
2.43506e-08
-1.39915e-08
-5.88363e-08
-2.01e-07
-5.88983e-07
-1.15137e-06
-2.44072e-06
-3.98451e-06
-7.13114e-06
-1.06767e-05
-1.723e-05
-2.44975e-05
-3.67077e-05
-5.02811e-05
-7.09884e-05
-9.42266e-05
-0.000126403
-0.00016292
-0.000208826
-0.000261485
-0.000321604
-0.000391202
-0.000463276
-0.000547352
-0.000625961
-0.00071922
-0.00079912
-0.000901072
-0.000997529
-0.00111986
-0.00125541
-0.00140017
-0.00156662
-0.00171215
-0.00187518
-0.00199348
-0.00211837
-0.00219629
-0.00227288
-0.00231139
-0.00234282
-0.00234719
-0.00233885
-0.00232191
-0.00229307
-0.00227891
-0.00226366
-0.00226434
-0.00226918
-0.00227156
0.00186347
0.00185131
0.00182907
0.00180086
0.00177798
0.00175633
0.00175261
0.00174643
0.00175309
0.00175414
0.00175292
0.00174712
0.00171928
0.00169063
0.00161853
0.00155374
0.00143677
0.00133843
0.00120699
0.00109806
0.000988619
0.000892189
0.000817464
0.00073554
0.000675847
0.00059879
0.000537347
0.000465072
0.000405101
0.000342325
0.00028864
0.00023834
0.000193925
0.000156595
0.000122512
9.67906e-05
7.25029e-05
5.60219e-05
3.99611e-05
3.01312e-05
2.0304e-05
1.48501e-05
9.32398e-06
6.52449e-06
3.71429e-06
2.41013e-06
1.17188e-06
6.50883e-07
2.36187e-07
8.41991e-08
2.27812e-08
-1.19227e-08
-5.67551e-08
-1.80656e-07
-5.68532e-07
-1.06298e-06
-2.35196e-06
-3.72995e-06
-6.87572e-06
-1.01006e-05
-1.66521e-05
-2.34e-05
-3.56068e-05
-4.84715e-05
-6.9173e-05
-9.16252e-05
-0.000123793
-0.000159692
-0.000205586
-0.000258163
-0.000318266
-0.000388734
-0.000460788
-0.000547023
-0.000625611
-0.000722277
-0.000802155
-0.000907594
-0.001004
-0.00112788
-0.00126332
-0.00140628
-0.00157265
-0.00171315
-0.00187622
-0.00198807
-0.00211316
-0.00218549
-0.00226241
-0.00229731
-0.00232917
-0.00233184
-0.00232398
-0.00230659
-0.00227821
-0.00226412
-0.00224919
-0.00225044
-0.00225536
-0.00225823
0.00185084
0.00183849
0.00181186
0.00178514
0.0017632
0.00174258
0.00173766
0.00173147
0.00173701
0.00173779
0.00173555
0.00173101
0.00170387
0.00167841
0.00160987
0.00154938
0.00143677
0.00134271
0.00121373
0.00110744
0.000998126
0.000901409
0.000825595
0.000741214
0.000679698
0.00060042
0.000536963
0.000463109
0.000401979
0.000338394
0.000284274
0.000233806
0.00018949
0.000152425
0.000118744
9.34996e-05
6.97121e-05
5.37384e-05
3.81345e-05
2.87321e-05
1.925e-05
1.4101e-05
8.7973e-06
6.18553e-06
3.49712e-06
2.29171e-06
1.10695e-06
6.27835e-07
2.27348e-07
8.7168e-08
2.24404e-08
-9.73777e-09
-5.81662e-08
-1.69391e-07
-5.42584e-07
-9.89871e-07
-2.22026e-06
-3.48315e-06
-6.49208e-06
-9.49427e-06
-1.57947e-05
-2.21817e-05
-3.40057e-05
-4.63775e-05
-6.65954e-05
-8.85e-05
-0.000120192
-0.00015566
-0.000201286
-0.000253802
-0.000314115
-0.000385179
-0.000458201
-0.000545924
-0.000626476
-0.000725494
-0.000807392
-0.000915738
-0.00101358
-0.00113837
-0.00127419
-0.00141497
-0.00157936
-0.00171565
-0.00187433
-0.00198145
-0.00210196
-0.00217008
-0.00224462
-0.00227673
-0.00230795
-0.00230929
-0.00230108
-0.00228207
-0.00225473
-0.00223806
-0.00222277
-0.00222166
-0.00223341
-0.00223646
0.00183176
0.00181939
0.00179276
0.00176578
0.00174478
0.00172362
0.00171566
0.00170873
0.00171058
0.00171054
0.00170751
0.00170218
0.00167982
0.00165372
0.0015969
0.00153607
0.00143963
0.0013456
0.00122943
0.00112334
0.00101731
0.000920757
0.0008386
0.000754264
0.000683981
0.000604729
0.000535157
0.000461326
0.000396664
0.000333099
0.000277636
0.000227184
0.00018314
0.000146087
0.0001136
8.83629e-05
6.60705e-05
5.0102e-05
3.58678e-05
2.64685e-05
1.80221e-05
1.28748e-05
8.23897e-06
5.62804e-06
3.30546e-06
2.10045e-06
1.07637e-06
5.97418e-07
2.39578e-07
9.94427e-08
2.46945e-08
-7.47326e-09
-6.67786e-08
-1.77968e-07
-5.07073e-07
-9.54217e-07
-2.00856e-06
-3.27104e-06
-5.8688e-06
-8.87002e-06
-1.44169e-05
-2.08018e-05
-3.14778e-05
-4.38457e-05
-6.26155e-05
-8.45131e-05
-0.000114788
-0.000150245
-0.000195091
-0.00024759
-0.000308575
-0.000379616
-0.000455597
-0.000543292
-0.000629817
-0.000728803
-0.000820166
-0.00092846
-0.00103444
-0.00115904
-0.00129372
-0.00143425
-0.00158717
-0.00172335
-0.00186509
-0.00197249
-0.00207783
-0.00214661
-0.00221079
-0.00224384
-0.00226962
-0.00227211
-0.0022634
-0.0022456
-0.00222125
-0.00220552
-0.00219048
-0.0021898
-0.00220174
-0.00220483
0.0018115
0.00179911
0.00177257
0.00174531
0.00172437
0.00170263
0.00169191
0.00168418
0.00168204
0.00168111
0.00167723
0.00167105
0.00165384
0.00162706
0.0015829
0.0015217
0.00144273
0.00134872
0.00124638
0.00114052
0.00103803
0.00094165
0.000852645
0.000768355
0.000688606
0.000609381
0.000533206
0.000459401
0.000390924
0.000327381
0.000270468
0.000220034
0.000176283
0.000139243
0.000108044
8.2816e-05
6.21382e-05
4.61752e-05
3.34202e-05
2.40241e-05
1.66961e-05
1.15506e-05
7.63605e-06
5.02603e-06
3.09851e-06
1.89391e-06
1.04336e-06
5.64572e-07
2.52784e-07
1.12697e-07
2.71286e-08
-5.02795e-09
-7.60786e-08
-1.87229e-07
-4.68727e-07
-9.15715e-07
-1.77995e-06
-3.04199e-06
-5.19575e-06
-8.19593e-06
-1.29291e-05
-1.93117e-05
-2.87481e-05
-4.11116e-05
-5.83178e-05
-8.02078e-05
-0.000108953
-0.000144397
-0.000188402
-0.000240882
-0.000302593
-0.000373609
-0.000452785
-0.000540449
-0.000633425
-0.000732377
-0.000833959
-0.000942198
-0.00105695
-0.00118136
-0.00131482
-0.00145506
-0.0015956
-0.00173168
-0.00185511
-0.00196281
-0.00205179
-0.00212127
-0.00217426
-0.00220833
-0.00222822
-0.00223196
-0.00222273
-0.00220621
-0.00218456
-0.00216982
-0.00215459
-0.00215437
-0.00216763
-0.00217076
0.00179508
0.00178268
0.00175154
0.00172401
0.00169933
0.00167685
0.00166362
0.00165494
0.00165098
0.00164909
0.00164727
0.00164025
0.00163237
0.00160502
0.00157646
0.00151508
0.00145158
0.00135772
0.00126442
0.0011588
0.00105727
0.000961053
0.000866335
0.000782095
0.000692996
0.000613801
0.000529265
0.000455488
0.00038193
0.000318411
0.000259605
0.00020919
0.000165952
0.000128927
9.96372e-05
7.44187e-05
5.61161e-05
4.01591e-05
2.95882e-05
2.01956e-05
1.45346e-05
9.39099e-06
6.57054e-06
3.9615e-06
2.65556e-06
1.45141e-06
8.99994e-07
4.21384e-07
2.22174e-07
8.21403e-08
2.60269e-08
-6.11758e-09
-4.68154e-08
-1.57924e-07
-3.15317e-07
-7.62137e-07
-1.27767e-06
-2.53924e-06
-3.94049e-06
-6.93954e-06
-1.0325e-05
-1.67053e-05
-2.40993e-05
-3.64582e-05
-5.10795e-05
-7.29612e-05
-9.91334e-05
-0.000134564
-0.000177009
-0.00022947
-0.000291938
-0.000362928
-0.000446434
-0.000534066
-0.000635551
-0.000734466
-0.000846717
-0.000954899
-0.00107719
-0.00120142
-0.00133583
-0.0014758
-0.00160888
-0.00174475
-0.00185309
-0.0019609
-0.00203259
-0.00210261
-0.00214237
-0.00217733
-0.00218983
-0.00219472
-0.00218185
-0.00216664
-0.00214169
-0.00212814
-0.00211392
-0.00211423
-0.00213215
-0.00213532
0.00177721
0.00176475
0.00172805
0.00169972
0.00167228
0.00164889
0.00163304
0.00162333
0.00161742
0.00161449
0.00161512
0.0016072
0.0016096
0.00158163
0.00157038
0.00150881
0.00146203
0.00136833
0.00128385
0.00117849
0.00107732
0.000981272
0.000880844
0.000796656
0.000697703
0.000618541
0.00052491
0.000451163
0.000372067
0.000308574
0.000247708
0.000197313
0.00015464
0.000117629
9.04297e-05
6.52215e-05
4.95177e-05
3.35672e-05
2.53863e-05
1.59975e-05
1.21612e-05
7.01975e-06
5.39768e-06
2.7897e-06
2.16545e-06
9.61789e-07
7.39391e-07
2.60975e-07
1.86709e-07
4.67322e-08
2.46368e-08
-7.49468e-09
-1.31036e-08
-1.24167e-07
-1.43639e-07
-5.90279e-07
-7.21566e-07
-1.98262e-06
-2.5566e-06
-5.55444e-06
-7.45938e-06
-1.38371e-05
-1.8988e-05
-3.13418e-05
-4.31236e-05
-6.49965e-05
-8.83407e-05
-0.000123757
-0.000164483
-0.000216923
-0.000280207
-0.000351168
-0.000439399
-0.000526995
-0.000637752
-0.000736626
-0.000860095
-0.000968217
-0.00109808
-0.00122213
-0.00135816
-0.00149784
-0.00162388
-0.00175952
-0.00185178
-0.00195969
-0.0020124
-0.00208299
-0.00210851
-0.00214442
-0.00214895
-0.00215507
-0.00213774
-0.00212393
-0.0020955
-0.00208312
-0.00206989
-0.00207083
-0.00209373
-0.00209697
0.00174945
0.00173641
0.00169957
0.00167081
0.00164271
0.0016181
0.00160116
0.00158779
0.00158076
0.00157421
0.00157405
0.00156585
0.00156832
0.00154603
0.00153637
0.00148619
0.00144171
0.00136065
0.00127737
0.00117984
0.00107839
0.00098244
0.000880167
0.000790545
0.000688696
0.000604025
0.000509726
0.000433939
0.000354445
0.000292021
0.000231019
0.00018355
0.000140938
0.000107466
8.04406e-05
5.84674e-05
4.2972e-05
2.94929e-05
2.1501e-05
1.37556e-05
1.00627e-05
5.89892e-06
4.37056e-06
2.29378e-06
1.72276e-06
7.80774e-07
5.84024e-07
2.13756e-07
1.4923e-07
4.23728e-08
2.29321e-08
1.0081e-08
7.20022e-09
-5.09906e-08
-5.97399e-08
-3.78047e-07
-4.79416e-07
-1.46274e-06
-1.97225e-06
-4.37978e-06
-6.16881e-06
-1.137e-05
-1.63445e-05
-2.66303e-05
-3.81868e-05
-5.69638e-05
-8.00786e-05
-0.000111661
-0.000152237
-0.000200993
-0.000264315
-0.000333192
-0.000421754
-0.000510545
-0.000621978
-0.000726219
-0.000852685
-0.000966994
-0.00109906
-0.00122423
-0.0013609
-0.00149357
-0.0016187
-0.00174109
-0.00183103
-0.00192495
-0.00197574
-0.00203636
-0.00206151
-0.00209269
-0.00209768
-0.00210301
-0.00208626
-0.00207346
-0.00204626
-0.00203425
-0.0020221
-0.00202369
-0.00204684
-0.00205084
0.00171946
0.00170581
0.00166881
0.0016396
0.00161078
0.00158486
0.00156682
0.0015494
0.00154111
0.0015304
0.00152896
0.0015207
0.00152197
0.00150682
0.00149618
0.00145985
0.00141476
0.00134863
0.00126512
0.00117642
0.00107495
0.000978362
0.000876116
0.00077959
0.000677789
0.000586705
0.00049245
0.000414288
0.000334832
0.000273649
0.000212676
0.000168611
0.000126019
9.6663e-05
6.96501e-05
5.14402e-05
3.59522e-05
2.53483e-05
1.73602e-05
1.15266e-05
7.83545e-06
4.80912e-06
3.28149e-06
1.82273e-06
1.25198e-06
6.14423e-07
4.17765e-07
1.73323e-07
1.08828e-07
4.05058e-08
2.10743e-08
3.06556e-08
2.77762e-08
3.11054e-08
2.23603e-08
-1.46638e-07
-2.47959e-07
-9.08144e-07
-1.41741e-06
-3.13825e-06
-4.92643e-06
-8.75879e-06
-1.37308e-05
-2.16107e-05
-3.31617e-05
-4.83373e-05
-7.14412e-05
-9.85629e-05
-0.00013912
-0.000183593
-0.000246884
-0.000313339
-0.000401859
-0.000492043
-0.000603423
-0.000713914
-0.00084032
-0.000962504
-0.00109453
-0.00122196
-0.00135863
-0.00148359
-0.00160893
-0.00171575
-0.00180629
-0.00188322
-0.00193507
-0.00198329
-0.00200985
-0.00203494
-0.00204158
-0.00204561
-0.00203064
-0.00201861
-0.00199308
-0.00198149
-0.0019705
-0.00197278
-0.00199621
-0.00200104
0.00168708
0.00167277
0.0016356
0.0016059
0.00157631
0.00154896
0.00152974
0.00150794
0.00149829
0.0014831
0.00148028
0.00147194
0.00147192
0.00146449
0.00145279
0.0014314
0.00138566
0.00133565
0.00125189
0.00117273
0.00107124
0.000973958
0.000871742
0.000767761
0.000666011
0.000568002
0.000473796
0.000393068
0.000313653
0.000253811
0.000192869
0.000152478
0.000109908
8.49971e-05
5.79981e-05
4.38521e-05
2.8372e-05
2.08728e-05
1.28888e-05
9.11973e-06
5.43042e-06
3.63231e-06
2.10546e-06
1.31407e-06
7.43613e-07
4.34789e-07
2.38233e-07
1.29661e-07
6.51993e-08
3.84897e-08
1.90682e-08
5.28729e-08
4.9995e-08
1.19756e-07
1.11015e-07
1.03248e-07
1.97893e-09
-3.09273e-07
-8.18281e-07
-1.7976e-06
-3.58486e-06
-5.93905e-06
-1.09086e-05
-1.61903e-05
-2.77354e-05
-3.90221e-05
-6.21142e-05
-8.44193e-05
-0.000124955
-0.000164803
-0.000228062
-0.000291901
-0.000380375
-0.000472064
-0.000583387
-0.000700626
-0.000826968
-0.000957655
-0.00108964
-0.00121951
-0.00135619
-0.00147282
-0.00159838
-0.00168838
-0.00177957
-0.00183816
-0.00189115
-0.00192598
-0.00195406
-0.00197259
-0.00198101
-0.00198363
-0.00197059
-0.00195938
-0.00193566
-0.00192452
-0.00191477
-0.00191781
-0.00194153
-0.00194726
0.00164395
0.00162944
0.00159499
0.00156524
0.00153834
0.00150984
0.0014884
0.00146409
0.00144951
0.00143153
0.00142292
0.00141364
0.00140923
0.00140411
0.00139275
0.00137663
0.00133834
0.00129404
0.00122096
0.00114491
0.0010498
0.000951498
0.00084837
0.00074101
0.000636317
0.000535641
0.0004428
0.000361101
0.00028566
0.000226362
0.000170677
0.000131733
9.42775e-05
7.11099e-05
4.81673e-05
3.56119e-05
2.28212e-05
1.65362e-05
1.00433e-05
7.08112e-06
4.07924e-06
2.76089e-06
1.50138e-06
9.7067e-07
4.95585e-07
3.15124e-07
1.53437e-07
9.79198e-08
4.74197e-08
3.69584e-08
3.34093e-08
7.66528e-08
1.05818e-07
2.01476e-07
2.30013e-07
2.85157e-07
2.02238e-07
2.72501e-08
-4.47626e-07
-1.13733e-06
-2.67854e-06
-4.455e-06
-8.55993e-06
-1.2826e-05
-2.23609e-05
-3.21264e-05
-5.1667e-05
-7.20848e-05
-0.000107596
-0.000145625
-0.000203173
-0.000265968
-0.000349563
-0.000441807
-0.000550753
-0.000670583
-0.000799206
-0.000933751
-0.0010669
-0.00119864
-0.00132918
-0.00144332
-0.00155697
-0.00164104
-0.00172142
-0.00177343
-0.00182138
-0.00185173
-0.00187955
-0.00189657
-0.00190738
-0.00191074
-0.00190184
-0.00189216
-0.00187345
-0.00186378
-0.00185423
-0.00185803
-0.00187824
-0.00188427
0.00159724
0.00158268
0.00155127
0.00152094
0.00149675
0.00146703
0.00144282
0.00141696
0.00139454
0.00137485
0.0013573
0.00134618
0.00133654
0.00132955
0.00132099
0.00130319
0.00127735
0.00123188
0.00117498
0.00109834
0.00101204
0.000913513
0.000808342
0.000700996
0.000592378
0.000491761
0.000400515
0.000318864
0.000250146
0.000190884
0.000144437
0.000105517
7.72112e-05
5.40575e-05
3.84497e-05
2.59018e-05
1.80099e-05
1.17286e-05
7.96881e-06
5.00837e-06
3.27813e-06
1.96058e-06
1.20753e-06
6.77139e-07
3.92659e-07
2.12305e-07
1.23468e-07
6.7984e-08
4.25423e-08
3.20873e-08
5.22534e-08
9.54711e-08
1.82215e-07
2.77815e-07
3.83944e-07
4.39055e-07
4.09147e-07
2.34263e-07
-1.5024e-07
-8.39535e-07
-1.88775e-06
-3.66315e-06
-6.11412e-06
-1.03776e-05
-1.6129e-05
-2.58886e-05
-3.88238e-05
-5.92294e-05
-8.55206e-05
-0.000123526
-0.000170791
-0.000233549
-0.000308659
-0.000400848
-0.000506429
-0.000626188
-0.000758086
-0.000892602
-0.00102848
-0.00116043
-0.00128281
-0.00139755
-0.00149331
-0.00157862
-0.00164147
-0.00169534
-0.00173312
-0.0017657
-0.00179087
-0.0018103
-0.00182379
-0.00182965
-0.00182647
-0.00181918
-0.00180482
-0.00179704
-0.00178598
-0.00179067
-0.00180942
-0.00181552
0.00155403
0.00153949
0.00150335
0.00147311
0.0014508
0.00141992
0.0013927
0.00136507
0.00133293
0.0013113
0.00128397
0.00127082
0.00125841
0.00124941
0.00125015
0.00123068
0.00122267
0.00117612
0.00113472
0.00105753
0.000976616
0.000877884
0.000765736
0.000658406
0.000540247
0.00043971
0.00034805
0.000266475
0.000205087
0.000145888
0.000110557
7.16817e-05
5.48407e-05
3.17147e-05
2.55183e-05
1.29849e-05
1.14801e-05
5.20533e-06
5.05735e-06
2.1003e-06
2.08464e-06
7.69792e-07
7.3363e-07
2.06143e-07
2.19027e-07
4.0896e-08
7.40154e-08
1.96556e-08
2.57783e-08
1.5621e-08
5.16365e-08
9.53645e-08
2.54702e-07
3.51969e-07
5.87039e-07
6.44982e-07
7.40793e-07
5.69115e-07
3.84393e-07
-3.02938e-07
-5.78511e-07
-2.35234e-06
-2.4191e-06
-6.67966e-06
-7.1457e-06
-1.68952e-05
-2.08203e-05
-4.12019e-05
-5.52608e-05
-9.32217e-05
-0.00012739
-0.00019008
-0.000255237
-0.000347339
-0.000451211
-0.000570873
-0.000711995
-0.000846482
-0.000990625
-0.00112278
-0.00124104
-0.00135633
-0.00143625
-0.00152268
-0.00156433
-0.00162001
-0.00164255
-0.00167747
-0.00169907
-0.00172099
-0.00173858
-0.00174698
-0.00174837
-0.00174362
-0.00172863
-0.00172251
-0.00171016
-0.00171487
-0.00173814
-0.00174427
0.0014947
0.0014818
0.00144535
0.00141982
0.0013963
0.00136836
0.00133944
0.00130777
0.00127358
0.00124265
0.00121316
0.00119026
0.00117569
0.00116147
0.0011603
0.00114337
0.00113428
0.00109689
0.00105495
0.000987604
0.000906146
0.000812938
0.000699645
0.000596084
0.000477176
0.000385038
0.000293442
0.000224758
0.000163412
0.00011777
8.24629e-05
5.45833e-05
3.77541e-05
2.16528e-05
1.54608e-05
6.38206e-06
4.87835e-06
-3.36299e-08
-1.81509e-07
-2.32426e-06
-2.33991e-06
-2.5407e-06
-2.57684e-06
-1.70971e-06
-1.69683e-06
-6.96141e-07
-6.63045e-07
-1.21815e-07
-1.15697e-07
3.17429e-08
6.77333e-08
4.00107e-07
5.59334e-07
1.60217e-06
1.83708e-06
3.50636e-06
3.6021e-06
5.11214e-06
4.92754e-06
5.23095e-06
4.95557e-06
3.28337e-06
3.21665e-06
-9.30374e-07
-1.39609e-06
-9.11692e-06
-1.30393e-05
-2.74096e-05
-4.14586e-05
-6.84461e-05
-0.000102591
-0.000150502
-0.000215613
-0.000292676
-0.000396476
-0.000505554
-0.000647337
-0.00077675
-0.000922128
-0.00104786
-0.00116679
-0.00127019
-0.00135076
-0.00142378
-0.00146654
-0.00151368
-0.00153835
-0.00157218
-0.00159642
-0.001623
-0.00164338
-0.00165829
-0.00166246
-0.0016618
-0.00164931
-0.00164223
-0.00163164
-0.00163332
-0.00165703
-0.00166201
0.00143065
0.0014195
0.00138269
0.00136228
0.00133745
0.00131269
0.00128193
0.00124589
0.00120962
0.00116851
0.00113681
0.00110328
0.00108639
0.00106652
0.00106302
0.00104893
0.00103782
0.00101036
0.000966969
0.000910163
0.000827917
0.00074065
0.00062714
0.000527891
0.00040907
0.000326001
0.000234474
0.000179709
0.00011841
8.74063e-05
5.21262e-05
3.61198e-05
1.93032e-05
1.07875e-05
4.6002e-06
-7.47927e-07