/*--------------------------------*- C++ -*----------------------------------*\
| =========                 |                                                 |
| \\      /  F ield         | OpenFOAM: The Open Source CFD Toolbox           |
|  \\    /   O peration     | Version:  v2106                                 |
|   \\  /    A nd           | Website:  www.openfoam.com                      |
|    \\/     M anipulation  |                                                 |
\*---------------------------------------------------------------------------*/
FoamFile
{
    version     2.0;
    format      ascii;
    arch        "LSB;label=32;scalar=64";
    class       volScalarField;
    location    "0";
    object      expGpCoeffs53;
}
// * * * * * * * * * * * * * * * * * * * * * * * * * * * * * * * * * * * * * //

dimensions      [0 0 0 0 0 0 0];

internalField   nonuniform List<scalar> 
8000
(
1.68626e-06
1.5027e-06
1.18119e-06
7.38726e-07
-7.60734e-07
-3.62229e-06
-1.6348e-05
-4.01174e-05
-9.05882e-05
-0.00016843
-0.000281075
-0.000428317
-0.000598983
-0.000791162
-0.000980863
-0.0011675
-0.00133464
-0.0014835
-0.00162289
-0.00175358
-0.00190598
-0.00208001
-0.00230008
-0.00256531
-0.00286936
-0.00321288
-0.00357807
-0.00396389
-0.00436136
-0.00476983
-0.0051823
-0.00559801
-0.00600927
-0.00641532
-0.0068085
-0.00718807
-0.00754708
-0.00788488
-0.00819573
-0.00847913
-0.00873091
-0.0089507
-0.009136
-0.00928663
-0.0094017
-0.00948117
-0.00952556
-0.00953494
-0.00951093
-0.00945371
-0.00936563
-0.00924695
-0.00910046
-0.00892645
-0.00872794
-0.00850523
-0.00826145
-0.00799693
-0.00771489
-0.00741567
-0.00710269
-0.00677634
-0.00644034
-0.00609508
-0.00574467
-0.00538954
-0.00503409
-0.00467881
-0.00432818
-0.0039827
-0.00364664
-0.00332046
-0.00300786
-0.0027092
-0.00243002
-0.00217105
-0.00194551
-0.00175277
-0.00159667
-0.00147768
-0.00137374
-0.00128479
-0.00118433
-0.00107178
-0.000941349
-0.00079221
-0.000640708
-0.000487503
-0.000352336
-0.000236612
-0.000147314
-8.44583e-05
-4.2039e-05
-1.95862e-05
-6.55002e-06
-2.32623e-06
-3.24052e-07
-8.9481e-08
6.07441e-11
5.11099e-10
1.70104e-06
1.51752e-06
1.18735e-06
7.44984e-07
-5.7223e-07
-3.42911e-06
-1.48521e-05
-3.85815e-05
-8.76952e-05
-0.000165478
-0.000278254
-0.000425466
-0.000597949
-0.000790158
-0.000982048
-0.00116876
-0.00133625
-0.00148516
-0.0016226
-0.00175328
-0.00190271
-0.0020767
-0.00229599
-0.00256118
-0.00286717
-0.00321065
-0.00357689
-0.00396266
-0.00436076
-0.00476918
-0.00518236
-0.00559802
-0.00601003
-0.00641603
-0.00680992
-0.00718945
-0.00754907
-0.00788683
-0.00819817
-0.00848153
-0.00873364
-0.0089534
-0.00913887
-0.00928948
-0.00940458
-0.00948404
-0.00952833
-0.00953772
-0.00951352
-0.00945631
-0.00936799
-0.00924932
-0.00910255
-0.00892856
-0.00872975
-0.00850707
-0.00826298
-0.00799849
-0.00771612
-0.00741694
-0.00710361
-0.0067773
-0.0064409
-0.00609569
-0.00574486
-0.00538978
-0.00503388
-0.00467863
-0.00432757
-0.00398212
-0.00364566
-0.00331952
-0.00300658
-0.00270796
-0.00242806
-0.00216913
-0.00194209
-0.00174938
-0.00159408
-0.00147511
-0.00137384
-0.00128489
-0.00118607
-0.00107347
-0.000942465
-0.000793264
-0.000639765
-0.00048654
-0.000350071
-0.00023437
-0.000145154
-8.23397e-05
-4.08389e-05
-1.84157e-05
-6.24076e-06
-2.02455e-06
-3.0505e-07
-7.0736e-08
9.71059e-11
5.47365e-10
1.717e-06
1.53352e-06
1.19401e-06
7.51741e-07
-3.68675e-07
-3.22051e-06
-1.32368e-05
-3.6923e-05
-8.45713e-05
-0.00016229
-0.000275208
-0.000422388
-0.000596831
-0.000789072
-0.000983327
-0.00117012
-0.00133798
-0.00148695
-0.00162229
-0.00175297
-0.00189918
-0.00207313
-0.00229157
-0.00255672
-0.00286481
-0.00320824
-0.00357562
-0.00396133
-0.00436011
-0.00476848
-0.00518244
-0.00559804
-0.00601086
-0.0064168
-0.00681146
-0.00719093
-0.00755122
-0.00788893
-0.0082008
-0.00848412
-0.00873658
-0.00895632
-0.00914198
-0.00929257
-0.0094077
-0.00948715
-0.00953133
-0.00954072
-0.00951632
-0.00945912
-0.00937053
-0.00925188
-0.0091048
-0.00893084
-0.00873171
-0.00850906
-0.00826463
-0.00800018
-0.00771745
-0.00741832
-0.0071046
-0.00677833
-0.00644151
-0.00609635
-0.00574506
-0.00539002
-0.00503364
-0.00467845
-0.0043269
-0.0039815
-0.0036446
-0.0033185
-0.0030052
-0.00270662
-0.00242595
-0.00216704
-0.0019384
-0.00174571
-0.00159128
-0.00147235
-0.00137395
-0.00128499
-0.00118795
-0.0010753
-0.000943669
-0.000794403
-0.000638747
-0.0004855
-0.000347624
-0.00023195
-0.000142822
-8.0052e-05
-3.95431e-05
-1.71518e-05
-5.9068e-06
-1.69879e-06
-2.8453e-07
-5.04944e-08
1.36371e-10
5.86525e-10
1.73423e-06
1.5508e-06
1.2012e-06
7.59037e-07
-1.48868e-07
-2.99525e-06
-1.14925e-05
-3.51321e-05
-8.1198e-05
-0.000158848
-0.000271918
-0.000419064
-0.000595625
-0.000787901
-0.000984708
-0.00117159
-0.00133986
-0.00148888
-0.00162196
-0.00175263
-0.00189537
-0.00206927
-0.0022868
-0.0025519
-0.00286226
-0.00320563
-0.00357425
-0.0039599
-0.00435941
-0.00476772
-0.00518252
-0.00559805
-0.00601175
-0.00641763
-0.00681312
-0.00719253
-0.00755355
-0.0078912
-0.00820363
-0.00848692
-0.00873977
-0.00895946
-0.00914533
-0.0092959
-0.00941106
-0.00949049
-0.00953457
-0.00954395
-0.00951935
-0.00946215
-0.00937327
-0.00925464
-0.00910724
-0.0089333
-0.00873382
-0.00851121
-0.00826642
-0.008002
-0.00771889
-0.0074198
-0.00710566
-0.00677945
-0.00644218
-0.00609706
-0.00574527
-0.00539029
-0.00503339
-0.00467825
-0.00432618
-0.00398083
-0.00364345
-0.00331741
-0.00300371
-0.00270518
-0.00242366
-0.0021648
-0.00193441
-0.00174176
-0.00158825
-0.00146936
-0.00137406
-0.0012851
-0.00118998
-0.00107727
-0.00094497
-0.000795633
-0.000637648
-0.000484378
-0.000344982
-0.000229337
-0.000140304
-7.75816e-05
-3.81438e-05
-1.5787e-05
-5.54618e-06
-1.34701e-06
-2.62372e-07
-2.86367e-08
1.78771e-10
6.28812e-10
1.75285e-06
1.56946e-06
1.20896e-06
7.93118e-07
8.84881e-08
-2.752e-06
-9.60895e-06
-3.31982e-05
-7.75553e-05
-0.00015513
-0.000268366
-0.000415474
-0.000594322
-0.000786635
-0.0009862
-0.00117317
-0.00134188
-0.00149097
-0.00162159
-0.00175226
-0.00189125
-0.0020651
-0.00228164
-0.00254669
-0.00285951
-0.00320282
-0.00357276
-0.00395836
-0.00435866
-0.0047669
-0.0051826
-0.00559807
-0.00601271
-0.00641853
-0.00681491
-0.00719426
-0.00755605
-0.00789366
-0.0082067
-0.00848994
-0.0087432
-0.00896287
-0.00914894
-0.00929949
-0.00941468
-0.00949411
-0.00953807
-0.00954745
-0.00952261
-0.00946542
-0.00937624
-0.00925762
-0.00910987
-0.00893596
-0.0087361
-0.00851353
-0.00826834
-0.00800397
-0.00772044
-0.0074214
-0.00710682
-0.00678066
-0.00644289
-0.00609783
-0.0057455
-0.00539058
-0.00503311
-0.00467803
-0.0043254
-0.00398011
-0.00364222
-0.00331622
-0.0030021
-0.00270362
-0.00242119
-0.00216237
-0.00193011
-0.00173749
-0.00158499
-0.00146613
-0.00137419
-0.00128523
-0.00119216
-0.0010794
-0.000946375
-0.000796961
-0.000636461
-0.000483165
-0.00034213
-0.000226514
-0.000137585
-7.4914e-05
-3.66328e-05
-1.43133e-05
-5.15677e-06
-9.67148e-07
-2.39213e-07
-5.03384e-09
2.24556e-10
6.74475e-10
1.85022e-06
1.67874e-06
1.44032e-06
9.91594e-07
3.24991e-07
-2.54147e-06
-7.78853e-06
-3.13552e-05
-7.36663e-05
-0.000151134
-0.000264533
-0.000411372
-0.000592625
-0.000784631
-0.000987657
-0.00117477
-0.00134407
-0.00149323
-0.0016212
-0.00175187
-0.0018868
-0.0020606
-0.00227608
-0.00254108
-0.00285981
-0.00320387
-0.00357508
-0.00396147
-0.00436252
-0.0047716
-0.00518818
-0.00560452
-0.00602006
-0.00642674
-0.00682398
-0.00720416
-0.0075667
-0.00790508
-0.0082187
-0.00850262
-0.00875627
-0.00897653
-0.00916281
-0.0093138
-0.00942902
-0.00950878
-0.00955262
-0.00956217
-0.00953712
-0.00947994
-0.00939047
-0.00927178
-0.00912368
-0.00894953
-0.00874932
-0.00852636
-0.00828081
-0.00801595
-0.00773204
-0.00743237
-0.00711736
-0.00679052
-0.00645227
-0.00610643
-0.0057536
-0.00539782
-0.00503982
-0.00468387
-0.0043307
-0.00398454
-0.00364615
-0.00331932
-0.00300479
-0.00270552
-0.00242223
-0.00216269
-0.00192546
-0.00173288
-0.00158146
-0.00146265
-0.00137432
-0.00128536
-0.00119453
-0.0010817
-0.000947799
-0.00079827
-0.000634691
-0.000481642
-0.000338881
-0.000223469
-0.000134648
-7.2062e-05
-3.51431e-05
-1.28798e-05
-4.875e-06
-7.00825e-07
-2.18952e-07
1.11874e-08
5.21233e-09
5.30652e-09
2.12009e-06
1.97686e-06
1.74007e-06
1.20592e-06
5.43822e-07
-2.33676e-06
-7.58024e-06
-3.00437e-05
-7.23385e-05
-0.000147121
-0.000260461
-0.00040454
-0.000585692
-0.000777545
-0.000980477
-0.00117173
-0.00134123
-0.00149761
-0.00162541
-0.00176301
-0.0018979
-0.00207767
-0.00229543
-0.00256782
-0.00289052
-0.00324272
-0.00361387
-0.00400903
-0.00441001
-0.00482844
-0.00524494
-0.00567091
-0.00608637
-0.00650263
-0.00689979
-0.00728917
-0.00765164
-0.00799849
-0.00831205
-0.00860347
-0.00885706
-0.0090836
-0.00926984
-0.00942572
-0.00954092
-0.00962409
-0.00966792
-0.00967934
-0.0096543
-0.00959743
-0.00950797
-0.00938806
-0.00923998
-0.00906312
-0.00886295
-0.00863585
-0.00839034
-0.00812001
-0.00783615
-0.00752978
-0.00721483
-0.00688023
-0.00654204
-0.00618758
-0.00583481
-0.00546979
-0.00511186
-0.00474634
-0.00439324
-0.00403751
-0.00369919
-0.00336312
-0.00304866
-0.0027408
-0.00245756
-0.00219017
-0.00194944
-0.00175003
-0.00159664
-0.00147245
-0.00138419
-0.00128909
-0.00119841
-0.00107943
-0.000945339
-0.000792563
-0.00062906
-0.000476267
-0.000333583
-0.00022024
-0.000131466
-7.08302e-05
-3.39279e-05
-1.26323e-05
-4.63086e-06
-6.78565e-07
-1.97074e-07
2.66289e-08
2.05725e-08
2.00794e-08
2.4115e-06
2.29877e-06
2.06375e-06
1.43735e-06
7.80126e-07
-2.11571e-06
-7.35532e-06
-2.86276e-05
-7.09047e-05
-0.000142787
-0.000256064
-0.000397163
-0.000578205
-0.000769894
-0.000972723
-0.00116845
-0.00133793
-0.00150259
-0.00163049
-0.00177782
-0.00191287
-0.00210206
-0.00231987
-0.00260104
-0.00292368
-0.00328468
-0.00365575
-0.00406039
-0.00446128
-0.00488981
-0.00530623
-0.00574259
-0.00615797
-0.00658457
-0.00698166
-0.00738096
-0.00774335
-0.00809936
-0.00841286
-0.00871236
-0.0089659
-0.00919921
-0.00938541
-0.00954658
-0.00966175
-0.0097486
-0.00979242
-0.00980586
-0.00978082
-0.00972429
-0.00963485
-0.00951362
-0.00936558
-0.00918579
-0.00898566
-0.00875409
-0.00850863
-0.00823238
-0.00794858
-0.00763497
-0.00732009
-0.0069771
-0.00663898
-0.0062752
-0.00592251
-0.0055475
-0.00518964
-0.0048138
-0.00446077
-0.00409471
-0.00375646
-0.00341043
-0.00309602
-0.00277889
-0.0024957
-0.00221986
-0.00197917
-0.00177164
-0.00161819
-0.00148557
-0.00139718
-0.00129353
-0.00120277
-0.00107676
-0.000942682
-0.000786401
-0.000622978
-0.000470462
-0.000327862
-0.000216754
-0.00012803
-6.95e-05
-3.26157e-05
-1.23652e-05
-4.36722e-06
-6.54528e-07
-1.73449e-07
4.33032e-08
3.7159e-08
3.60317e-08
2.72617e-06
2.64639e-06
2.41327e-06
1.68726e-06
1.0353e-06
-1.87701e-06
-7.11243e-06
-2.70984e-05
-6.93564e-05
-0.000138107
-0.000251315
-0.000389196
-0.00057012
-0.000761631
-0.00096435
-0.00116491
-0.00133437
-0.00150797
-0.00163598
-0.00179382
-0.00192902
-0.00212839
-0.00234627
-0.00263692
-0.00295948
-0.00332999
-0.00370098
-0.00411584
-0.00451665
-0.00495609
-0.00537241
-0.00582001
-0.00623529
-0.00667306
-0.00707006
-0.00748007
-0.00784239
-0.00820828
-0.00852172
-0.00882994
-0.00908343
-0.00932406
-0.00951022
-0.00967709
-0.00979224
-0.00988306
-0.00992687
-0.00994248
-0.00991745
-0.00986129
-0.00977186
-0.00964921
-0.0095012
-0.00931824
-0.00911816
-0.00888176
-0.00863635
-0.00835372
-0.00806998
-0.00774857
-0.00743375
-0.00708171
-0.00674367
-0.00636982
-0.00601721
-0.00563142
-0.00527364
-0.00488664
-0.00453369
-0.00415648
-0.0038183
-0.00346151
-0.00314717
-0.00282002
-0.0025369
-0.00225191
-0.00201127
-0.00179497
-0.00164146
-0.00149974
-0.00141121
-0.00129833
-0.00120747
-0.00107387
-0.000939814
-0.000779747
-0.000616411
-0.000464194
-0.000321685
-0.000212989
-0.000124321
-6.80637e-05
-3.11987e-05
-1.20766e-05
-4.08253e-06
-6.28572e-07
-1.47937e-07
6.13088e-08
5.50699e-08
5.32577e-08
3.06597e-06
3.02176e-06
2.7907e-06
1.95713e-06
1.31084e-06
-1.61925e-06
-6.85016e-06
-2.54471e-05
-6.76845e-05
-0.000133053
-0.000246188
-0.000380594
-0.00056139
-0.00075271
-0.000955308
-0.00116108
-0.00133052
-0.00151378
-0.0016419
-0.0018111
-0.00194647
-0.00215683
-0.00237478
-0.00267566
-0.00299815
-0.00337892
-0.00374982
-0.00417573
-0.00457644
-0.00502765
-0.00544387
-0.0059036
-0.00631879
-0.00676862
-0.00716553
-0.0075871
-0.00794933
-0.0083259
-0.00863926
-0.00895692
-0.00921035
-0.00945887
-0.00964498
-0.00981802
-0.00993314
-0.0100282
-0.0100721
-0.01009
-0.010065
-0.0100092
-0.00991982
-0.00979562
-0.00964765
-0.00946128
-0.00926124
-0.00901963
-0.00877428
-0.00848474
-0.00820107
-0.00787123
-0.00755648
-0.00719467
-0.00685671
-0.006472
-0.00611947
-0.00572204
-0.00536434
-0.0049653
-0.00461243
-0.00422318
-0.00388508
-0.00351666
-0.0032024
-0.00286444
-0.00258138
-0.00228652
-0.00204593
-0.00182017
-0.00166659
-0.00151505
-0.00142637
-0.00130351
-0.00121255
-0.00107076
-0.000936716
-0.000772562
-0.00060932
-0.000457426
-0.000315014
-0.000208924
-0.000120314
-6.65126e-05
-2.96686e-05
-1.17651e-05
-3.77511e-06
-6.00543e-07
-1.20389e-07
8.0752e-08
7.44107e-08
7.1859e-08
3.4329e-06
3.4271e-06
3.19826e-06
2.24854e-06
1.60838e-06
-1.34091e-06
-6.56695e-06
-2.36639e-05
-6.58791e-05
-0.000127596
-0.000240651
-0.000371304
-0.000551963
-0.000743075
-0.000945545
-0.00115695
-0.00132637
-0.00152005
-0.0016483
-0.00182976
-0.00196531
-0.00218754
-0.00240556
-0.00271749
-0.0030399
-0.00343175
-0.00380256
-0.0042404
-0.00464101
-0.00510493
-0.00552105
-0.00599386
-0.00640894
-0.0068718
-0.00726861
-0.00770268
-0.00806482
-0.00845291
-0.00876619
-0.00909403
-0.00934739
-0.00960444
-0.00979051
-0.0099702
-0.0100853
-0.010185
-0.0102288
-0.0102493
-0.0102243
-0.010169
-0.0100796
-0.00995373
-0.00980579
-0.00961573
-0.00941574
-0.0091685
-0.00892322
-0.00862623
-0.00834263
-0.00800368
-0.00768902
-0.00731665
-0.00697877
-0.00658233
-0.00622989
-0.0058199
-0.00546229
-0.00505024
-0.00469746
-0.00429521
-0.00395719
-0.00357622
-0.00326205
-0.0029124
-0.00262941
-0.00232389
-0.00208337
-0.00184737
-0.00169372
-0.00153157
-0.00144273
-0.0013091
-0.00121804
-0.00106739
-0.000933372
-0.000764803
-0.000601662
-0.000450117
-0.00030781
-0.000204534
-0.000115988
-6.48377e-05
-2.80163e-05
-1.14287e-05
-3.44315e-06
-5.70277e-07
-9.06411e-08
1.01748e-07
9.52957e-08
9.19455e-08
3.82913e-06
3.86481e-06
3.63836e-06
2.56322e-06
1.92968e-06
-1.04035e-06
-6.26112e-06
-2.17384e-05
-6.39296e-05
-0.000121703
-0.000234673
-0.000361274
-0.000541784
-0.000732672
-0.000935002
-0.00115249
-0.00132188
-0.00152683
-0.0016552
-0.0018499
-0.00198566
-0.00222069
-0.0024388
-0.00276266
-0.00308498
-0.0034888
-0.00385951
-0.00431023
-0.00471073
-0.00518838
-0.00560438
-0.00609134
-0.0065063
-0.00698322
-0.00737992
-0.00782748
-0.00818952
-0.00859006
-0.00890326
-0.00924209
-0.00949538
-0.00976164
-0.00994766
-0.0101345
-0.0102496
-0.0103543
-0.0103981
-0.0104214
-0.0103963
-0.0103415
-0.0102521
-0.0101245
-0.00997655
-0.00978251
-0.00958258
-0.00932926
-0.00908404
-0.00877902
-0.0084955
-0.00814671
-0.00783213
-0.00744836
-0.00711058
-0.00670148
-0.00634913
-0.00592556
-0.00556806
-0.00514196
-0.00478928
-0.00437298
-0.00403506
-0.00364054
-0.00332645
-0.00296419
-0.00268128
-0.00236425
-0.00212379
-0.00187675
-0.00172302
-0.00154942
-0.00146039
-0.00131514
-0.00122397
-0.00106376
-0.00092976
-0.000756425
-0.000593393
-0.000442224
-0.000300032
-0.000199793
-0.000111317
-6.30291e-05
-2.6232e-05
-1.10654e-05
-3.08468e-06
-5.37594e-07
-5.85182e-08
1.24419e-07
1.17848e-07
1.13636e-07
4.47339e-06
4.52926e-06
4.41595e-06
3.25387e-06
2.18887e-06
-7.63689e-07
-6.57779e-06
-2.08223e-05
-6.19434e-05
-0.00011678
-0.000226719
-0.00035042
-0.000527557
-0.000718485
-0.000921284
-0.0011432
-0.00131789
-0.00153179
-0.00166684
-0.00187373
-0.00201521
-0.00226279
-0.00248822
-0.00282183
-0.00315751
-0.00356959
-0.00394895
-0.00440855
-0.00481873
-0.00530584
-0.00573193
-0.00622864
-0.0066538
-0.00714042
-0.00754709
-0.00800396
-0.00837543
-0.00878456
-0.00910635
-0.00945276
-0.00971355
-0.00998614
-0.0101783
-0.0103702
-0.0104899
-0.0105981
-0.0106449
-0.0106701
-0.0106464
-0.0105919
-0.0105022
-0.0103733
-0.0102235
-0.0100267
-0.00982315
-0.00956567
-0.00931529
-0.00900472
-0.00871461
-0.00835907
-0.00803664
-0.00764499
-0.00729832
-0.00688047
-0.0065184
-0.00608549
-0.00571775
-0.00528195
-0.00491886
-0.00449288
-0.00414471
-0.00374083
-0.00341698
-0.00304601
-0.00275444
-0.00242946
-0.00217651
-0.00192043
-0.00176003
-0.00157526
-0.00148108
-0.00132517
-0.00122821
-0.00106043
-0.000922222
-0.000745418
-0.000582298
-0.000431246
-0.000291621
-0.000193558
-0.000107194
-6.10359e-05
-2.51615e-05
-1.10392e-05
-3.03324e-06
-7.25756e-07
-3.83582e-08
1.40122e-07
1.53578e-07
1.49043e-07
5.40696e-06
5.46385e-06
5.27277e-06
4.12227e-06
2.43036e-06
-5.17281e-07
-7.7303e-06
-2.20288e-05
-6.00537e-05
-0.000114886
-0.000215168
-0.00033865
-0.000506265
-0.000696785
-0.000900968
-0.00112254
-0.00131663
-0.00153058
-0.00169906
-0.00190639
-0.00208565
-0.00233368
-0.00258984
-0.00292347
-0.00328206
-0.003694
-0.00409967
-0.00455912
-0.00499874
-0.0054857
-0.00594246
-0.00643901
-0.00689516
-0.00738162
-0.00781862
-0.00827534
-0.00867549
-0.00908449
-0.00943237
-0.00977868
-0.0100622
-0.0103347
-0.0105455
-0.0107373
-0.0108712
-0.0109793
-0.0110354
-0.0110606
-0.0110411
-0.0109866
-0.010896
-0.0107671
-0.0106113
-0.0104145
-0.0102
-0.00994262
-0.00967657
-0.0093661
-0.00905599
-0.00870056
-0.00835428
-0.00796276
-0.00758901
-0.0071713
-0.00677972
-0.00634695
-0.00594814
-0.00551249
-0.00511778
-0.00469194
-0.00431263
-0.00390889
-0.00355538
-0.00318453
-0.00286666
-0.00254178
-0.00226636
-0.00201025
-0.00182169
-0.00163652
-0.00150881
-0.00135253
-0.00122676
-0.00105894
-0.000905434
-0.000728908
-0.000565644
-0.000414901
-0.000282514
-0.000184618
-0.000104932
-5.87974e-05
-2.5622e-05
-1.14699e-05
-3.34434e-06
-1.02654e-06
-2.16672e-08
1.56581e-07
2.05038e-07
2.00447e-07
6.41353e-06
6.47152e-06
6.40066e-06
5.2613e-06
2.73095e-06
-2.12254e-07
-8.97484e-06
-2.33317e-05
-5.80131e-05
-0.000112842
-0.000202695
-0.000325941
-0.000483272
-0.000673352
-0.000879029
-0.00110024
-0.00131526
-0.00152926
-0.00173386
-0.00194166
-0.00216172
-0.00241024
-0.00269958
-0.00303323
-0.00341654
-0.00382834
-0.00426243
-0.00472172
-0.00519313
-0.00567992
-0.00616979
-0.00666617
-0.00715578
-0.00764208
-0.00811183
-0.00856839
-0.00899951
-0.00940836
-0.00978443
-0.0101306
-0.0104387
-0.0107111
-0.0109421
-0.0111338
-0.0112829
-0.011391
-0.0114571
-0.0114822
-0.0114673
-0.0114128
-0.0113212
-0.0111924
-0.01103
-0.0108334
-0.010607
-0.0103497
-0.0100667
-0.00975633
-0.00942462
-0.00906931
-0.00869728
-0.00830589
-0.00790292
-0.00748535
-0.0070619
-0.00662928
-0.00619693
-0.00576143
-0.00533258
-0.00490689
-0.00449396
-0.00409036
-0.00370484
-0.00333412
-0.00298784
-0.00266308
-0.00236338
-0.00210724
-0.00188828
-0.00170268
-0.00153875
-0.00138208
-0.00122518
-0.00105734
-0.000887306
-0.00071108
-0.000547661
-0.000397252
-0.00027268
-0.000174965
-0.00010249
-5.63802e-05
-2.61192e-05
-1.19349e-05
-3.54742e-06
-1.21554e-06
2.64835e-08
2.04689e-07
2.60482e-07
2.55831e-07
7.47583e-06
7.53497e-06
7.98756e-06
6.86962e-06
3.28369e-06
3.54043e-07
-5.23784e-06
-1.94976e-05
-4.29021e-05
-9.73089e-05
-0.000171908
-0.000294404
-0.000445452
-0.00063472
-0.000853313
-0.00107408
-0.00131742
-0.00153155
-0.00176945
-0.00197772
-0.0022295
-0.00247841
-0.0027986
-0.00313225
-0.00354858
-0.00396023
-0.0044303
-0.00488942
-0.00539892
-0.00588553
-0.00641553
-0.00691172
-0.00744204
-0.00792815
-0.00843762
-0.00889401
-0.00936237
-0.00977107
-0.0101806
-0.0105266
-0.0108632
-0.0111355
-0.0113894
-0.0115811
-0.0117469
-0.011855
-0.0119314
-0.0119565
-0.0119454
-0.011891
-0.0117969
-0.0116681
-0.0114971
-0.0113006
-0.0110597
-0.0108025
-0.0104995
-0.0101892
-0.00983225
-0.00947708
-0.00907511
-0.00868387
-0.00824694
-0.00782953
-0.00736899
-0.00693652
-0.00646508
-0.00602974
-0.00556113
-0.00513559
-0.00468366
-0.00428021
-0.00385789
-0.0034873
-0.00310663
-0.00278199
-0.00245147
-0.00219531
-0.00194871
-0.00176275
-0.00157084
-0.00141374
-0.00122763
-0.00105967
-0.000865983
-0.000690122
-0.000517261
-0.00036749
-0.000248472
-0.000151329
-8.99145e-05
-4.41434e-05
-2.18816e-05
-7.80853e-06
-2.95947e-06
-6.42249e-07
1.35119e-07
3.11869e-07
3.18348e-07
3.13635e-07
8.63005e-06
8.70022e-06
9.74918e-06
8.69714e-06
3.91909e-06
1.09233e-06
-1.16564e-06
-1.53094e-05
-2.54034e-05
-7.93369e-05
-0.000137344
-0.000259009
-0.0004038
-0.000592174
-0.000825341
-0.00104562
-0.00132033
-0.00153461
-0.00180747
-0.00201624
-0.00229933
-0.00254867
-0.00290188
-0.00323553
-0.00369046
-0.00410193
-0.00461115
-0.00507008
-0.00562092
-0.00610733
-0.00668091
-0.0071769
-0.00775141
-0.00823733
-0.00878992
-0.00924613
-0.00975491
-0.0101634
-0.0106092
-0.0109551
-0.0113227
-0.0115948
-0.0118735
-0.0120651
-0.012249
-0.012357
-0.0124445
-0.0124696
-0.0124627
-0.0124083
-0.0123115
-0.0121827
-0.0120024
-0.0118059
-0.0115493
-0.0112922
-0.0109674
-0.0106573
-0.0102729
-0.00991792
-0.00948351
-0.00909243
-0.0086187
-0.00820146
-0.00770072
-0.00726843
-0.00675461
-0.00631945
-0.00580773
-0.00538237
-0.00488818
-0.00448489
-0.00402271
-0.00365227
-0.00323425
-0.00290974
-0.00254347
-0.0022873
-0.00201131
-0.00182495
-0.00160543
-0.00144788
-0.00123094
-0.00106284
-0.000842783
-0.000667319
-0.000483757
-0.000334689
-0.000221309
-0.000124801
-7.5441e-05
-3.00488e-05
-1.72619e-05
-3.31895e-06
-2.32454e-06
-3.38058e-08
2.86444e-07
4.4339e-07
3.83565e-07
3.77423e-07
1.0328e-05
1.07801e-05
1.18402e-05
1.08585e-05
6.12604e-06
2.56744e-06
5.527e-07
-1.15283e-05
-1.99357e-05
-6.5235e-05
-0.000121152
-0.000229476
-0.000372963
-0.000552271
-0.000786145
-0.00101143
-0.00129008
-0.00152536
-0.00180374
-0.00204194
-0.00233072
-0.00260759
-0.00296579
-0.00332067
-0.0037758
-0.00420664
-0.00471869
-0.00519729
-0.00575111
-0.00625827
-0.006835
-0.00735228
-0.00793
-0.00843721
-0.00899293
-0.00946986
-0.00998157
-0.0104097
-0.0108581
-0.011222
-0.0115918
-0.0118799
-0.0121604
-0.0123655
-0.0125507
-0.0126695
-0.0127578
-0.0127906
-0.012784
-0.0127339
-0.0126369
-0.0125089
-0.0123279
-0.0121285
-0.0118708
-0.011607
-0.0112807
-0.01096
-0.0105737
-0.0102045
-0.00976772
-0.00935899
-0.0088826
-0.00844475
-0.00794108
-0.00748586
-0.00696896
-0.00650932
-0.00599446
-0.00554404
-0.00504677
-0.00461884
-0.00415375
-0.00376006
-0.00333931
-0.00299277
-0.00262558
-0.0023476
-0.00206701
-0.00185505
-0.00163045
-0.00144691
-0.00122507
-0.00103933
-0.000815954
-0.000636654
-0.000452631
-0.00031056
-0.000198261
-0.00011158
-6.37694e-05
-2.51147e-05
-1.36316e-05
-2.32584e-06
-1.63868e-06
2.0505e-07
5.20292e-07
6.47466e-07
5.86556e-07
5.33379e-07
1.21615e-05
1.30261e-05
1.40982e-05
1.31925e-05
8.50919e-06
4.16034e-06
2.19375e-06
-7.44982e-06
-1.57383e-05
-5.0556e-05
-0.00010612
-0.000198352
-0.000341176
-0.000509629
-0.000742687
-0.00097409
-0.00125214
-0.00151293
-0.00179116
-0.00206581
-0.00235476
-0.00266685
-0.00302511
-0.00340736
-0.00386227
-0.00431565
-0.00482746
-0.00532896
-0.00588252
-0.00641383
-0.00699029
-0.00753238
-0.00810982
-0.00864182
-0.00919728
-0.00969833
-0.0102098
-0.0106608
-0.011109
-0.0114938
-0.0118635
-0.0121701
-0.0124505
-0.0126713
-0.0128564
-0.0129876
-0.013076
-0.0131176
-0.013111
-0.013066
-0.012969
-0.012842
-0.0126611
-0.0124582
-0.0122007
-0.011929
-0.0116028
-0.0112699
-0.0108838
-0.010498
-0.0100615
-0.00963221
-0.00915605
-0.0086942
-0.00819077
-0.00770884
-0.00719217
-0.00670404
-0.00618943
-0.00570984
-0.0052128
-0.0047562
-0.00429132
-0.00387057
-0.00345001
-0.00307782
-0.0027108
-0.00240479
-0.00212409
-0.00187924
-0.00165445
-0.00143864
-0.00121688
-0.00100967
-0.000786768
-0.00060278
-0.000419391
-0.000285707
-0.000173926
-9.90949e-05
-5.15752e-05
-2.1094e-05
-9.7195e-06
-1.56214e-06
-8.98056e-07
4.62975e-07
7.7281e-07
8.67836e-07
8.05754e-07
7.01787e-07
1.41414e-05
1.54514e-05
1.65365e-05
1.57128e-05
1.10826e-05
5.88041e-06
3.96583e-06
-3.04565e-06
-1.12058e-05
-3.47051e-05
-8.98884e-05
-0.000164742
-0.00030685
-0.000463582
-0.00069576
-0.000933769
-0.00121116
-0.00149951
-0.00177758
-0.00209157
-0.00238071
-0.00273083
-0.00308918
-0.00350096
-0.00395564
-0.00443337
-0.00494491
-0.00547114
-0.00602442
-0.00658182
-0.00715798
-0.00772685
-0.008304
-0.00886277
-0.00941794
-0.00994505
-0.0104563
-0.0109319
-0.0113799
-0.0117874
-0.0121568
-0.0124835
-0.0127637
-0.0130015
-0.0131865
-0.0133312
-0.0134195
-0.0134708
-0.0134642
-0.0134245
-0.0133277
-0.0132016
-0.0130208
-0.0128143
-0.0125568
-0.0122767
-0.0119507
-0.0116046
-0.0112187
-0.010815
-0.0103787
-0.00992724
-0.00945133
-0.00896357
-0.0084604
-0.00794961
-0.00743321
-0.00691432
-0.00639996
-0.00588887
-0.00539209
-0.00490452
-0.00443988
-0.00398989
-0.00356955
-0.00316967
-0.00280283
-0.00246653
-0.00218573
-0.00190536
-0.00168037
-0.0014297
-0.00120804
-0.000977647
-0.000755251
-0.000566202
-0.000383497
-0.00025887
-0.000147649
-8.56126e-05
-3.84075e-05
-1.67523e-05
-5.49509e-06
-7.37472e-07
-9.82984e-08
7.41495e-07
1.04549e-06
1.1058e-06
1.04245e-06
8.8364e-07
1.70277e-05
1.84774e-05
1.95047e-05
1.86933e-05
1.46557e-05
9.14813e-06
5.31316e-06
-6.18493e-07
-1.05551e-05
-2.93178e-05
-7.93921e-05
-0.000146895
-0.000274713
-0.0004262
-0.000642275
-0.000882404
-0.00115673
-0.00145606
-0.00174995
-0.00208081
-0.00239471
-0.00276222
-0.00313592
-0.00356129
-0.00401476
-0.00450181
-0.00501312
-0.00554881
-0.00610115
-0.00666853
-0.00724322
-0.00782235
-0.00839795
-0.00896697
-0.00952103
-0.0100581
-0.0105691
-0.0110542
-0.0115032
-0.0119194
-0.0122913
-0.0126258
-0.01291
-0.0131543
-0.0133446
-0.0134945
-0.013589
-0.013644
-0.0136443
-0.0136067
-0.0135167
-0.013391
-0.0132165
-0.0130087
-0.0127566
-0.0124733
-0.0121512
-0.0118001
-0.0114165
-0.011006
-0.0105703
-0.0101104
-0.00963333
-0.00913563
-0.00862969
-0.00810782
-0.00758719
-0.00705648
-0.0065367
-0.0060135
-0.00551042
-0.00501093
-0.00453947
-0.00407823
-0.00365113
-0.00324058
-0.00286881
-0.00251857
-0.00222055
-0.00192378
-0.00167576
-0.00141004
-0.00117516
-0.000935442
-0.000715977
-0.000525294
-0.000354599
-0.00023403
-0.000132737
-7.61352e-05
-3.31687e-05
-1.52215e-05
-4.29611e-06
-9.2006e-07
3.85937e-07
1.05726e-06
1.42528e-06
1.48863e-06
1.37655e-06
1.20073e-06
2.01288e-05
2.15812e-05
2.40728e-05
2.33117e-05
1.89798e-05
1.3586e-05
6.41088e-06
5.0396e-07
-1.01677e-05
-2.8946e-05
-6.58721e-05
-0.000133094
-0.000233668
-0.000384307
-0.000575412
-0.000814238
-0.00108659
-0.00138475
-0.00170676
-0.00203703
-0.00239379
-0.00276112
-0.00316346
-0.00358861
-0.00404768
-0.00453444
-0.005047
-0.00558237
-0.00613509
-0.00670213
-0.0072766
-0.00785537
-0.00843072
-0.0089994
-0.00955383
-0.0100906
-0.0106032
-0.011088
-0.0115404
-0.0119563
-0.0123336
-0.0126679
-0.0129595
-0.0132036
-0.0134032
-0.013553
-0.0136581
-0.013713
-0.0137244
-0.0136869
-0.0136078
-0.0134823
-0.0133177
-0.01311
-0.0128661
-0.012583
-0.0122668
-0.0119159
-0.0115353
-0.0111251
-0.0106893
-0.0102296
-0.00974927
-0.00925187
-0.00873966
-0.0082181
-0.00768859
-0.00715819
-0.00662746
-0.00610457
-0.00558915
-0.00508996
-0.00460551
-0.00414455
-0.00370476
-0.00329445
-0.00290838
-0.00255831
-0.00222857
-0.00193188
-0.00164375
-0.00137846
-0.00111986
-0.000881049
-0.000663965
-0.000474269
-0.000322443
-0.000202519
-0.000120465
-6.41165e-05
-3.13503e-05
-1.34315e-05
-4.48913e-06
-1.09848e-06
7.95214e-07
1.45658e-06
2.00318e-06
2.0601e-06
1.7306e-06
1.55447e-06
2.26988e-05
2.42245e-05
3.00824e-05
2.96967e-05
2.42104e-05
1.89447e-05
7.37427e-06
1.58526e-06
-1.52347e-06
-2.00736e-05
-2.97924e-05
-9.61368e-05
-0.000159821
-0.000308935
-0.000477818
-0.000714672
-0.000997434
-0.0012941
-0.00165095
-0.00198047
-0.00237606
-0.00274308
-0.00317142
-0.00359631
-0.0040661
-0.0045525
-0.00507102
-0.00560598
-0.00616466
-0.00673127
-0.0073119
-0.00789023
-0.00847198
-0.00904022
-0.00960145
-0.0101378
-0.0106578
-0.0111422
-0.0116027
-0.0120183
-0.0124047
-0.0127387
-0.0130402
-0.0132841
-0.0134943
-0.013644
-0.0137601
-0.013815
-0.0138373
-0.0137999
-0.013731
-0.0136056
-0.0134499
-0.0132424
-0.0130053
-0.0127224
-0.0124101
-0.0120594
-0.0116794
-0.0112695
-0.0108303
-0.010371
-0.00988334
-0.00938631
-0.00886296
-0.0083418
-0.00779788
-0.00726787
-0.00672034
-0.00619784
-0.00566437
-0.00516554
-0.00466309
-0.00420246
-0.00374552
-0.00333551
-0.00293026
-0.00258039
-0.00222248
-0.00192598
-0.00160184
-0.00133711
-0.00104862
-0.000810983
-0.000586578
-0.00039841
-0.000264536
-0.00014578
-9.05833e-05
-3.49414e-05
-2.17718e-05
-4.10372e-06
-3.16519e-06
1.8082e-07
1.376e-06
2.00881e-06
2.81234e-06
2.80381e-06
2.03242e-06
1.844e-06
2.57656e-05
2.85341e-05
3.4413e-05
3.61503e-05
3.08044e-05
2.50143e-05
1.36125e-05
5.36312e-06
2.46786e-06
-1.18044e-05
-2.09059e-05
-6.76262e-05
-0.0001302
-0.000246621
-0.000413496
-0.000620599
-0.000901828
-0.00118796
-0.00154493
-0.00188295
-0.00227957
-0.00265478
-0.00308237
-0.0034963
-0.00396027
-0.00441851
-0.00493667
-0.00543672
-0.00599501
-0.00652364
-0.00710387
-0.00764286
-0.0082242
-0.00875374
-0.00931457
-0.00981496
-0.0103346
-0.0107877
-0.0112479
-0.0116386
-0.0120247
-0.0123413
-0.0126425
-0.0128772
-0.0130872
-0.0132357
-0.0133517
-0.0134131
-0.0134353
-0.0134112
-0.0133424
-0.013236
-0.0130805
-0.0128965
-0.0126596
-0.0124035
-0.0120915
-0.0117698
-0.01139
-0.0110101
-0.0105713
-0.0101421
-0.00965479
-0.00918725
-0.00866426
-0.00817125
-0.00762772
-0.00712394
-0.0065768
-0.0060782
-0.0055451
-0.00506754
-0.00456544
-0.0041233
-0.00366668
-0.00327031
-0.00286962
-0.00252117
-0.00216338
-0.0018551
-0.00152975
-0.00125574
-0.000967
-0.000736975
-0.000513782
-0.000348052
-0.000215738
-0.00012121
-6.68819e-05
-2.67682e-05
-1.40922e-05
-2.28238e-06
-1.54601e-06
1.05199e-06
2.22281e-06
2.94602e-06
3.72979e-06
3.3984e-06
2.62414e-06
2.22687e-06
2.90773e-05
3.31879e-05
3.90786e-05
4.31192e-05
3.79249e-05
3.15686e-05
2.03489e-05
9.44261e-06
6.67157e-06
-2.88394e-06
-1.1748e-05
-3.68393e-05
-9.8715e-05
-0.000179332
-0.000344828
-0.000519227
-0.000798612
-0.00107292
-0.00142814
-0.00177492
-0.00217027
-0.00255381
-0.00298068
-0.00338237
-0.00384599
-0.00427383
-0.0047916
-0.00525394
-0.00581181
-0.00629944