/*--------------------------------*- C++ -*----------------------------------*\
| =========                 |                                                 |
| \\      /  F ield         | OpenFOAM: The Open Source CFD Toolbox           |
|  \\    /   O peration     | Version:  v2106                                 |
|   \\  /    A nd           | Website:  www.openfoam.com                      |
|    \\/     M anipulation  |                                                 |
\*---------------------------------------------------------------------------*/
FoamFile
{
    version     2.0;
    format      ascii;
    arch        "LSB;label=32;scalar=64";
    class       volScalarField;
    location    "0";
    object      expGpCoeffs14;
}
// * * * * * * * * * * * * * * * * * * * * * * * * * * * * * * * * * * * * * //

dimensions      [0 0 0 0 0 0 0];

internalField   nonuniform List<scalar> 
8000
(
0.106883
0.105209
0.102173
0.0978657
0.0926286
0.0866467
0.0799802
0.0725697
0.0645601
0.0558847
0.0467903
0.0373108
0.027762
0.018187
0.00902297
0.000236804
-0.0077326
-0.0149386
-0.0212377
-0.026632
-0.0313191
-0.0352667
-0.0388037
-0.0418936
-0.0447863
-0.0474797
-0.0500582
-0.0525214
-0.0548621
-0.0570778
-0.0591508
-0.0610793
-0.0628545
-0.0644758
-0.0659451
-0.0672628
-0.0684421
-0.0694844
-0.0704134
-0.0712313
-0.0719697
-0.0726311
-0.0732507
-0.0738314
-0.0744069
-0.0749798
-0.0755772
-0.076201
-0.0768677
-0.0775782
-0.0783354
-0.0791389
-0.0799772
-0.0808485
-0.0817277
-0.0826121
-0.0834655
-0.0842843
-0.085025
-0.0856836
-0.0862137
-0.0866114
-0.0868318
-0.0868714
-0.0866912
-0.0862884
-0.0856333
-0.0847241
-0.0835433
-0.0820902
-0.0803608
-0.0783559
-0.0760859
-0.0735526
-0.0707467
-0.0676659
-0.0641385
-0.0601718
-0.0554017
-0.0498824
-0.043308
-0.0357282
-0.0271292
-0.0175156
-0.00727036
0.00366506
0.0146727
0.0257853
0.0364989
0.0467662
0.0562761
0.0649969
0.0727622
0.0796303
0.0856606
0.0909264
0.0955632
0.0994501
0.10225
0.103834
0.107018
0.105344
0.102251
0.0979449
0.0926912
0.0867094
0.0800445
0.0726329
0.0646129
0.0559356
0.0468185
0.0373366
0.0277577
0.0181798
0.00897877
0.000189432
-0.00780394
-0.0150123
-0.0213054
-0.0267006
-0.0313651
-0.0353127
-0.0388262
-0.0419158
-0.044796
-0.0474891
-0.0500673
-0.0525303
-0.0548732
-0.0570887
-0.0591631
-0.0610913
-0.0628672
-0.0644883
-0.0659572
-0.0672746
-0.0684524
-0.0694946
-0.0704213
-0.0712391
-0.0719745
-0.0726359
-0.0732525
-0.0738331
-0.0744059
-0.0749787
-0.0755742
-0.0761979
-0.0768638
-0.0775742
-0.0783319
-0.0791353
-0.0799753
-0.0808465
-0.0817286
-0.0826129
-0.08347
-0.0842887
-0.0850335
-0.085692
-0.0862263
-0.0866239
-0.0868482
-0.0868877
-0.0867106
-0.0863078
-0.0856547
-0.0847456
-0.0835656
-0.0821127
-0.0803828
-0.0783782
-0.0761062
-0.0735733
-0.0707702
-0.0676897
-0.0641861
-0.0602198
-0.0554782
-0.0499588
-0.0433947
-0.0358138
-0.0272009
-0.0175847
-0.00729654
0.00364209
0.0146961
0.0258112
0.0365566
0.0468256
0.0563563
0.0650781
0.0728439
0.0797122
0.0857182
0.0909838
0.0956228
0.0995088
0.102378
0.103962
0.107164
0.10549
0.102335
0.0980303
0.0927587
0.0867771
0.0801139
0.0727012
0.0646699
0.0559906
0.0468489
0.0373644
0.027753
0.018172
0.00893105
0.000138278
-0.00788099
-0.0150918
-0.0213784
-0.0267746
-0.0314149
-0.0353624
-0.0388506
-0.0419397
-0.0448065
-0.0474993
-0.0500772
-0.0525398
-0.0548852
-0.0571003
-0.0591764
-0.0611044
-0.0628809
-0.0645017
-0.0659701
-0.0672874
-0.0684636
-0.0695056
-0.0704297
-0.0712475
-0.0719797
-0.072641
-0.0732543
-0.0738349
-0.0744048
-0.0749775
-0.0755709
-0.0761945
-0.0768596
-0.0775699
-0.0783281
-0.0791314
-0.0799733
-0.0808444
-0.0817296
-0.0826138
-0.0834749
-0.0842934
-0.0850427
-0.0857011
-0.0862399
-0.0866375
-0.0868658
-0.0869054
-0.0867315
-0.0863287
-0.0856778
-0.0847689
-0.0835897
-0.082137
-0.0804065
-0.0784022
-0.0761282
-0.0735956
-0.0707955
-0.0677155
-0.0642374
-0.0602716
-0.0555607
-0.0500414
-0.0434884
-0.0359063
-0.0272784
-0.0176593
-0.00732481
0.00361728
0.0147213
0.0258392
0.0366189
0.0468898
0.0564428
0.0651657
0.0729321
0.0798007
0.0857804
0.0910458
0.0956872
0.0995722
0.102516
0.104099
0.107321
0.105648
0.102426
0.0981226
0.0928317
0.0868502
0.0801889
0.0727749
0.0647314
0.0560499
0.0468817
0.0373945
0.027748
0.0181635
0.00887951
8.30392e-05
-0.00796419
-0.0151778
-0.0214572
-0.0268545
-0.0314686
-0.0354161
-0.0388769
-0.0419656
-0.0448179
-0.0475102
-0.0500879
-0.0525501
-0.0548982
-0.057113
-0.0591908
-0.0611185
-0.0628957
-0.0645163
-0.0659841
-0.0673012
-0.0684757
-0.0695175
-0.0704389
-0.0712565
-0.0719854
-0.0726466
-0.0732564
-0.0738368
-0.0744036
-0.0749762
-0.0755674
-0.0761909
-0.0768551
-0.0775653
-0.078324
-0.0791272
-0.0799711
-0.0808421
-0.0817307
-0.0826147
-0.0834801
-0.0842985
-0.0850526
-0.085711
-0.0862546
-0.0866521
-0.0868848
-0.0869244
-0.0867541
-0.0863514
-0.0857028
-0.084794
-0.0836157
-0.0821632
-0.0804321
-0.0784281
-0.076152
-0.0736198
-0.0708229
-0.0677433
-0.0642928
-0.0603276
-0.0556499
-0.0501305
-0.0435896
-0.0360061
-0.027362
-0.0177399
-0.00735533
0.00359049
0.0147485
0.0258695
0.0366861
0.0469591
0.0565363
0.0652603
0.0730273
0.0798962
0.0858476
0.0911128
0.0957567
0.0996407
0.102665
0.104248
0.107491
0.105818
0.102524
0.0982241
0.0929105
0.0869292
0.0802699
0.0728546
0.0647978
0.056114
0.0469172
0.037427
0.0277426
0.0181544
0.00882386
2.33904e-05
-0.00805402
-0.0152706
-0.0215424
-0.0269408
-0.0315266
-0.035474
-0.0389053
-0.0419935
-0.0448301
-0.0475221
-0.0500995
-0.0525613
-0.0549121
-0.0571266
-0.0592063
-0.0611337
-0.0629116
-0.064532
-0.0659993
-0.0673161
-0.0684887
-0.0695304
-0.0704488
-0.0712663
-0.0719915
-0.0726526
-0.0732586
-0.0738389
-0.0744023
-0.0749748
-0.0755636
-0.076187
-0.0768502
-0.0775602
-0.0783196
-0.0791226
-0.0799688
-0.0808396
-0.0817318
-0.0826157
-0.0834858
-0.084304
-0.0850634
-0.0857216
-0.0862705
-0.0866679
-0.0869054
-0.0869449
-0.0867784
-0.0863758
-0.0857297
-0.0848211
-0.0836438
-0.0821915
-0.0804598
-0.0784561
-0.0761776
-0.0736458
-0.0708524
-0.0677733
-0.0643527
-0.060388
-0.0557461
-0.0502267
-0.0436988
-0.0361139
-0.0274523
-0.0178268
-0.00738829
0.00356156
0.0147779
0.0259022
0.0367587
0.0470339
0.0566372
0.0653624
0.0731302
0.0799994
0.0859201
0.0911851
0.0958311
0.0997147
0.102826
0.104409
0.107663
0.105984
0.102655
0.0983446
0.0930093
0.0870629
0.0803651
0.0729805
0.0648722
0.0561982
0.0469666
0.0374956
0.0277605
0.0182001
0.00877325
-2.86369e-05
-0.00815104
-0.0153708
-0.0216344
-0.027034
-0.0315892
-0.0355366
-0.038936
-0.0420237
-0.0448135
-0.0475037
-0.0500808
-0.0525398
-0.0548933
-0.0571041
-0.0591857
-0.0611086
-0.0628872
-0.0645026
-0.0659693
-0.0672809
-0.0684516
-0.0694879
-0.0704034
-0.0712156
-0.0719374
-0.0725933
-0.0731957
-0.0737718
-0.074332
-0.0749008
-0.0754873
-0.076108
-0.0767701
-0.0774786
-0.0782386
-0.0790406
-0.079889
-0.08076
-0.0816556
-0.0825407
-0.0834152
-0.0842352
-0.0849995
-0.0856603
-0.0862143
-0.0866144
-0.0868566
-0.0868994
-0.0867365
-0.0863375
-0.0856938
-0.0847887
-0.0836124
-0.0821636
-0.0804312
-0.0784308
-0.0761501
-0.0736213
-0.0708313
-0.0677546
-0.0644173
-0.0604533
-0.05585
-0.0503306
-0.0438168
-0.0362303
-0.0275498
-0.0179208
-0.00740919
0.0035409
0.0148714
0.0259617
0.0368708
0.0471244
0.0567591
0.0654743
0.0732672
0.0801108
0.0860215
0.0912627
0.0959069
0.0998088
0.102973
0.104563
0.107827
0.10613
0.102802
0.0984748
0.0931412
0.0872284
0.080532
0.0732272
0.0651218
0.0565438
0.0473176
0.0379268
0.0281989
0.0186782
0.00925949
0.000443331
-0.00769527
-0.0150067
-0.0212586
-0.0267646
-0.0312959
-0.035307
-0.0386688
-0.0417657
-0.0445194
-0.0471961
-0.0497727
-0.0522064
-0.0545595
-0.0567359
-0.0588171
-0.0606977
-0.0624759
-0.0640427
-0.0655091
-0.0667678
-0.0679384
-0.0689202
-0.0698356
-0.0705944
-0.0713161
-0.0719224
-0.0725247
-0.0730572
-0.0736172
-0.0741503
-0.0747367
-0.075331
-0.0759929
-0.0766849
-0.0774447
-0.0782402
-0.0790884
-0.0799626
-0.080858
-0.0817551
-0.0826294
-0.0834692
-0.0842333
-0.0849202
-0.085474
-0.0859049
-0.086147
-0.0862236
-0.0860607
-0.0856969
-0.0850534
-0.0841832
-0.0830071
-0.0815917
-0.0798596
-0.0778898
-0.0756095
-0.0731077
-0.0703182
-0.067261
-0.0639859
-0.0600203
-0.0554768
-0.0498873
-0.0434038
-0.035706
-0.0270387
-0.0173342
-0.00680304
0.00412172
0.0154425
0.0264492
0.0373503
0.0474818
0.0571111
0.0656963
0.0734869
0.0802308
0.0861411
0.0913455
0.0959888
0.0999137
0.103077
0.104689
0.108003
0.106287
0.10296
0.0986153
0.0932837
0.087407
0.0807123
0.0734935
0.0653914
0.056917
0.0476965
0.0383924
0.0286723
0.0191945
0.00978455
0.000952982
-0.00717699
-0.0145532
-0.0207982
-0.0263847
-0.0309116
-0.0349784
-0.0383382
-0.0414486
-0.0442017
-0.046864
-0.0494401
-0.0518463
-0.0541989
-0.0563383
-0.058419
-0.0602539
-0.0620318
-0.063546
-0.0650121
-0.0662138
-0.0673841
-0.0683072
-0.0692224
-0.0699237
-0.0706452
-0.071198
-0.0718001
-0.0722855
-0.0728455
-0.07334
-0.0739263
-0.0744919
-0.0751537
-0.0758277
-0.0765874
-0.0773758
-0.0782239
-0.0791014
-0.0799967
-0.0809068
-0.0817809
-0.0826421
-0.083406
-0.084121
-0.0846747
-0.0851388
-0.0853808
-0.0854939
-0.085331
-0.0850052
-0.0843618
-0.0835293
-0.0823535
-0.0809741
-0.0792424
-0.0773056
-0.0750258
-0.0725531
-0.0697642
-0.066728
-0.0634536
-0.0594823
-0.0549419
-0.0493046
-0.0428278
-0.0350652
-0.0264076
-0.0166686
-0.0061485
0.0047489
0.0160592
0.0269755
0.0378681
0.0478677
0.0574913
0.065936
0.0737242
0.0803604
0.0862701
0.0914349
0.0960773
0.100027
0.103189
0.104826
0.108194
0.106456
0.103131
0.0987671
0.0934376
0.0875999
0.080907
0.0737811
0.0656825
0.05732
0.0481058
0.0388952
0.0291835
0.019752
0.0103515
0.00150332
-0.00661734
-0.0140636
-0.020301
-0.0259745
-0.0304965
-0.0346236
-0.0379812
-0.0411062
-0.0438587
-0.0465054
-0.0490809
-0.0514575
-0.0538096
-0.0559089
-0.0579892
-0.0597747
-0.0615522
-0.0630096
-0.0644754
-0.0656155
-0.0667856
-0.0676452
-0.0685602
-0.0691994
-0.0699207
-0.0704157
-0.0710177
-0.0714522
-0.0720121
-0.0724649
-0.0730511
-0.0735858
-0.0742474
-0.0749021
-0.0756616
-0.0764424
-0.0772903
-0.0781716
-0.0790667
-0.0799908
-0.0808647
-0.0817489
-0.0825126
-0.083258
-0.0838116
-0.0843115
-0.0845535
-0.0847059
-0.0845431
-0.0842582
-0.083615
-0.0828233
-0.0816477
-0.0803072
-0.0785759
-0.0766748
-0.0743955
-0.0719542
-0.0691659
-0.0661525
-0.0628788
-0.0589014
-0.0543643
-0.0486753
-0.0422058
-0.0343733
-0.0257262
-0.0159499
-0.00544169
0.00542617
0.0167252
0.0275438
0.0384272
0.0482844
0.0579019
0.0661949
0.0739804
0.0805003
0.0864095
0.0915314
0.0961728
0.100149
0.10331
0.104973
0.1084
0.106639
0.103315
0.098931
0.0936038
0.0878082
0.0811172
0.0740917
0.0659968
0.0577552
0.0485477
0.0394382
0.0297354
0.020354
0.0109638
0.00209761
-0.00601301
-0.0135349
-0.0197642
-0.0255315
-0.0300483
-0.0342404
-0.0375957
-0.0407365
-0.0434883
-0.0461181
-0.048693
-0.0510377
-0.0533892
-0.0554453
-0.0575251
-0.0592573
-0.0610344
-0.0624305
-0.0638959
-0.0649695
-0.0661393
-0.0669304
-0.0678452
-0.0684172
-0.0691384
-0.0695709
-0.0701727
-0.0705524
-0.0711121
-0.07152
-0.072106
-0.0726073
-0.0732688
-0.0739026
-0.0746619
-0.0754345
-0.0762822
-0.0771674
-0.0780623
-0.0790016
-0.0798753
-0.0807843
-0.0815479
-0.082326
-0.0828795
-0.0834181
-0.08366
-0.083855
-0.0836922
-0.0834516
-0.0828085
-0.0820609
-0.0808856
-0.0795871
-0.0778562
-0.0759936
-0.0737148
-0.0713075
-0.0685199
-0.065531
-0.0622581
-0.0582741
-0.0537406
-0.0479958
-0.0415341
-0.0336261
-0.0249903
-0.0151738
-0.00467846
0.0061575
0.0174444
0.0281576
0.0390309
0.0487344
0.0583452
0.0664744
0.0742571
0.0806514
0.08656
0.0916357
0.0962759
0.100281
0.103441
0.105132
0.108622
0.106837
0.103515
0.099108
0.0937832
0.0880332
0.0813442
0.0744271
0.0663362
0.0582251
0.0490248
0.0400245
0.0303315
0.0210041
0.0116249
0.00273934
-0.00536042
-0.012964
-0.0191845
-0.0250531
-0.0295644
-0.0338267
-0.0371794
-0.0403372
-0.0430883
-0.0456999
-0.0482742
-0.0505843
-0.0529353
-0.0549446
-0.0570239
-0.0586985
-0.0604752
-0.0618051
-0.0632701
-0.0642719
-0.0654414
-0.0661586
-0.0670731
-0.0675726
-0.0682936
-0.0686587
-0.0692604
-0.0695808
-0.0701403
-0.0704997
-0.0710855
-0.0715508
-0.0722121
-0.0728233
-0.0735824
-0.0743462
-0.0751936
-0.0760832
-0.0769778
-0.0779335
-0.078807
-0.0797428
-0.0805062
-0.0813197
-0.081873
-0.0824534
-0.0826953
-0.0829361
-0.0827734
-0.0825806
-0.0819377
-0.0812376
-0.0800626
-0.0788095
-0.077079
-0.075258
-0.0729798
-0.0706092
-0.0678223
-0.0648599
-0.0615879
-0.0575967
-0.0530671
-0.047262
-0.0408088
-0.0328192
-0.0241956
-0.0143357
-0.00385428
0.00694723
0.0182209
0.0288203
0.0396829
0.0492204
0.0588239
0.0667763
0.0745558
0.0808146
0.0867226
0.0917482
0.0963873
0.100424
0.103582
0.105303
0.108862
0.10705
0.10373
0.0992991
0.093977
0.0882761
0.0815893
0.0747892
0.0667027
0.0587325
0.0495401
0.0406576
0.0309752
0.0217061
0.0123388
0.0034323
-0.00465573
-0.0123475
-0.0185585
-0.0245366
-0.0290418
-0.0333799
-0.0367299
-0.0399061
-0.0426564
-0.0452484
-0.0478219
-0.0500947
-0.0524451
-0.054404
-0.0564827
-0.0580952
-0.0598713
-0.0611297
-0.0625944
-0.0635186
-0.0646878
-0.0653251
-0.0662394
-0.0666606
-0.0673814
-0.0676736
-0.0682752
-0.0685316
-0.069091
-0.0693978
-0.0699836
-0.0704098
-0.071071
-0.0716578
-0.0724167
-0.0731709
-0.0740181
-0.0749123
-0.0758067
-0.07678
-0.0776533
-0.0786181
-0.0793813
-0.080233
-0.0807862
-0.0814117
-0.0816535
-0.0819439
-0.0817813
-0.0816401
-0.0809973
-0.0803486
-0.0791739
-0.0779698
-0.0762398
-0.0744637
-0.0721861
-0.0698552
-0.067069
-0.0641352
-0.0608641
-0.0568652
-0.0523398
-0.0464697
-0.0400255
-0.0319479
-0.0233375
-0.0134307
-0.00296431
0.00780001
0.0190595
0.0295359
0.0403868
0.0497451
0.0593408
0.0671023
0.0748784
0.0809908
0.0868981
0.0918698
0.0965076
0.100578
0.103735
0.105489
0.109079
0.107254
0.103983
0.099544
0.0942683
0.0885722
0.0819662
0.0752262
0.0672408
0.0593713
0.0503135
0.0415073
0.0319524
0.0227073
0.0133742
0.00446095
-0.00370246
-0.0114193
-0.0177509
-0.0237733
-0.0283753
-0.0327553
-0.0361248
-0.0393174
-0.0420082
-0.0445862
-0.0471374
-0.0493842
-0.0516983
-0.053622
-0.0556556
-0.0572248
-0.0589485
-0.0601573
-0.0615645
-0.0624348
-0.0635442
-0.0641261
-0.064981
-0.065348
-0.0660126
-0.0662545
-0.0668055
-0.0670175
-0.067534
-0.0678046
-0.0683564
-0.0687557
-0.069393
-0.0699626
-0.0707079
-0.0714555
-0.0722992
-0.0731965
-0.074097
-0.0750823
-0.0759704
-0.0769553
-0.0777409
-0.0786188
-0.0792006
-0.0798575
-0.0801326
-0.0804574
-0.0803314
-0.0802259
-0.0796214
-0.0790084
-0.077872
-0.0767019
-0.075009
-0.0732642
-0.0710213
-0.0687181
-0.0659565
-0.0630428
-0.0598762
-0.055869
-0.0513356
-0.0454469
-0.0388984
-0.0308145
-0.0220883
-0.0122024
-0.00168995
0.00903618
0.0202117
0.03062
0.041293
0.0505303
0.059955
0.0675782
0.0752295
0.0812551
0.0870876
0.092041
0.0966596
0.100735
0.103852
0.105623
0.109268
0.107444
0.104257
0.099822
0.0946188
0.0889288
0.0825139
0.0757849
0.0681269
0.0602771
0.0515779
0.0427995
0.0335252
0.0243137
0.0151161
0.00623807
-0.0019938
-0.00968054
-0.016259
-0.0222614
-0.0271361
-0.0315061
-0.0350444
-0.0382347
-0.0409558
-0.043533
-0.0460184
-0.0482645
-0.0504707
-0.0523938
-0.0542924
-0.0558611
-0.0574276
-0.0586359
-0.0598706
-0.0607407
-0.0616703
-0.062252
-0.0629285
-0.0632954
-0.0637912
-0.064033
-0.0644321
-0.064644
-0.0650316
-0.0653021
-0.0657522
-0.0661513
-0.0667169
-0.0672864
-0.0679909
-0.0687383
-0.0695717
-0.0704687
-0.0713881
-0.0723731
-0.0733063
-0.0742908
-0.0751444
-0.076022
-0.0766905
-0.0773472
-0.0777232
-0.0780479
-0.0780322
-0.0779267
-0.0774371
-0.0768243
-0.0758029
-0.0746332
-0.073051
-0.0713068
-0.0691671
-0.0668646
-0.0641756
-0.0612628
-0.05806
-0.0540564
-0.0493663
-0.0434933
-0.0367394
-0.0286841
-0.0198337
-0.00998688
0.000430849
0.011115
0.0219884
0.0323596
0.0426009
0.0518103
0.0607513
0.068358
0.0756139
0.0816335
0.0872922
0.0922432
0.0968314
0.100905
0.103926
0.105696
0.109523
0.107699
0.104681
0.10025
0.0950332
0.089349
0.0831054
0.0763881
0.0690838
0.0612551
0.0529432
0.0441949
0.0352235
0.0260484
0.0169971
0.00815709
-0.000148723
-0.00780295
-0.014648
-0.0206288
-0.025798
-0.0301571
-0.0338778
-0.0370654
-0.0398194
-0.0423957
-0.0448101
-0.0470553
-0.0491451
-0.0510675
-0.0528203
-0.0543884
-0.0557851
-0.0569931
-0.0580415
-0.0589112
-0.0596468
-0.0602282
-0.0607122
-0.0610789
-0.0613924
-0.0616341
-0.0618693
-0.0620811
-0.0623294
-0.0625998
-0.0629401
-0.0633391
-0.0638272
-0.0643965
-0.0650569
-0.0658041
-0.0666265
-0.0675232
-0.0684628
-0.0694475
-0.0704294
-0.0714136
-0.0723406
-0.0732179
-0.07398
-0.0746364
-0.0751213
-0.0754459
-0.0755494
-0.0754439
-0.0750785
-0.0744659
-0.0735686
-0.0723993
-0.0709368
-0.0691932
-0.0671649
-0.0648632
-0.0622525
-0.0593407
-0.0560988
-0.0520991
-0.0472399
-0.0413836
-0.0344081
-0.0263836
-0.0173992
-0.00759448
0.00272097
0.0133598
0.023907
0.0342381
0.0440133
0.0531925
0.0616113
0.0692
0.076029
0.082042
0.0875396
0.0924887
0.0971047
0.101176
0.104054
0.105823
0.110605
0.108783
0.105375
0.100953
0.0956865
0.0900165
0.0840335
0.0773382
0.0703841
0.062587
0.0546079
0.0458976
0.0371132
0.0279787
0.0188855
0.0100831
0.00153939
-0.00608629
-0.0132449
-0.0192078
-0.0246346
-0.0289845
-0.0327902
-0.0359753
-0.0386723
-0.0412476
-0.0435718
-0.0458162
-0.0477898
-0.0497115
-0.051311
-0.0528786
-0.0540901
-0.0552976
-0.0561363
-0.0570058
-0.0575173
-0.0580985
-0.0583553
-0.0587219
-0.0588169
-0.0590585
-0.0590951
-0.0593068
-0.0593861
-0.0596564
-0.059865
-0.0602638
-0.0606624
-0.0612314
-0.0618467
-0.0625935
-0.0634145
-0.0643109
-0.0652898
-0.0662741
-0.0673311
-0.068315
-0.0693466
-0.0702236
-0.0711128
-0.071769
-0.0723957
-0.0727202
-0.0729726
-0.0728671
-0.0726505
-0.0720381
-0.0712827
-0.0701138
-0.0687808
-0.0670379
-0.0651225
-0.0628217
-0.0603266
-0.0574159
-0.0542808
-0.0502848
-0.0453691
-0.0395273
-0.0323008
-0.0243031
-0.0150456
-0.00528069
0.00517498
0.0157653
0.0262042
0.0364863
0.0458975
0.0550341
0.0629516
0.0705081
0.0768464
0.082841
0.0879675
0.0929085
0.0975648
0.101629
0.104976
0.106744
0.111764
0.109939
0.106073
0.101592
0.0963841
0.0906979
0.0850379
0.0783668
0.0718126
0.0640499
0.05642
0.0477509
0.0391572
0.0300668
0.0209104
0.0121483
0.00331323
-0.00428178
-0.0117997
-0.0177432
-0.0234441
-0.0277841
-0.0316479
-0.0348303
-0.0374379
-0.0400122
-0.0422382
-0.0444817
-0.0463303
-0.0482513
-0.0496856
-0.0512526
-0.0522639
-0.0534709
-0.0540829
-0.054952
-0.0552208
-0.0558018
-0.0558123
-0.0561787
-0.0560366
-0.0562781
-0.056099
-0.0563107
-0.0562064
-0.0564767
-0.0565423
-0.0569409
-0.0572425
-0.0578113
-0.0583778
-0.0591244
-0.0599443
-0.0608403
-0.0618626
-0.0628465
-0.0639859
-0.0649693
-0.0661155
-0.0669921
-0.0680199
-0.0686758
-0.069457
-0.0697814
-0.0701957
-0.0700903
-0.070035
-0.0694228
-0.0688211
-0.0676527
-0.0664596
-0.0647174
-0.0629236
-0.0606237
-0.058255
-0.0553456
-0.0523736
-0.0483817
-0.0434476
-0.0376213
-0.0301091
-0.0221404
-0.0125479
-0.00282573
0.00782304
0.018361
0.0286987
0.0389277
0.0479591
0.0570493
0.0644359
0.0719571
0.0777324
0.0837065
0.0883978
0.0933555
0.0979642
0.102093
0.105959
0.10773
0.112409
0.110489
0.106628
0.102029
0.0968299
0.0912225
0.0856101
0.0791936
0.0727289
0.0653334
0.0577678
0.0494705
0.0409326
0.032117
0.0229995
0.0143366
0.00549818
-0.00218421
-0.00973186
-0.0158581
-0.0215872
-0.0260631
-0.0299109
-0.0331046
-0.0356556
-0.0381491
-0.0403665
-0.0424762
-0.0443145
-0.0460581
-0.0474791
-0.0488297
-0.0498251
-0.0507846
-0.0513787
-0.0519796
-0.0522294
-0.0525337
-0.0525251
-0.0526194
-0.052459
-0.0524458
-0.05225
-0.0522362
-0.0521178
-0.0522013
-0.0522558
-0.052514
-0.0528078
-0.053287
-0.0538495
-0.0545586
-0.0553781
-0.0562882
-0.0573134
-0.0583594
-0.0595047
-0.0605928
-0.0617473
-0.062764
-0.0638022
-0.0646251
-0.0654181
-0.0659275
-0.0663542
-0.0664427
-0.0664
-0.0659814
-0.0653919
-0.0644089
-0.0632271
-0.0616553
-0.0598717
-0.0577226
-0.0553647
-0.052574
-0.0496793
-0.0457242
-0.0408219
-0.0349186
-0.0273843
-0.0193288
-0.00972025
-5.75942e-05
0.0105695
0.0208271
0.0310967
0.0408657
0.049819
0.0583744
0.065678
0.0727136
0.0783828
0.0840488
0.0886927
0.0935885
0.0981939
0.10249
0.106352
0.108243
0.113106
0.111084
0.107227
0.102502
0.0973112
0.0917891
0.0861871
0.0800848
0.0736387
0.0666888
0.0591526
0.0513026
0.0428036
0.0343157
0.0252431
0.0166945
0.00790028
0.000109881
-0.00740195
-0.0137482
-0.0194541
-0.0240949
-0.027933
-0.0311437
-0.0336933
-0.0360929
-0.0383093
-0.0402634
-0.0421008
-0.0436382
-0.0450585
-0.0461576
-0.0471525
-0.047824
-0.0484179
-0.0487066
-0.0489564
-0.0489387
-0.04893
-0.0487078
-0.0485474
-0.0482379
-0.0480422
-0.047766
-0.0476477
-0.0475141
-0.0475686
-0.0476633
-0.047957
-0.0483317
-0.048894
-0.0495596
-0.0503788
-0.0513052
-0.0523299
-0.0534482
-0.054593
-0.0558028
-0.0569568
-0.0581365
-0.0591742
-0.0601916
-0.0609842
-0.061709
-0.0621355
-0.0624495
-0.0624068
-0.0622135
-0.0616243
-0.0608569
-0.0596757
-0.0583022
-0.0565195
-0.0545456
-0.0521889
-0.0495363
-0.0466431
-0.0427322
-0.0378443
-0.0318556
-0.0243545
-0.0162018
-0.0066414
0.00295012
0.0135217
0.0234477
0.0336645
0.042884
0.051795
0.0597065
0.0669818
0.0734278
0.0790832
0.084371
0.0890111
0.0938402
0.098442
0.102919
0.106777
0.108798
0.113858
0.111725
0.107874
0.103013
0.0978309
0.0924008
0.0868101
0.0810472
0.0746212
0.0681523
0.0606478
0.0532809
0.0448239
0.0366899
0.0276659
0.0192407
0.0104942
0.00258713
-0.00488602
-0.0114698
-0.0171508
-0.0219696
-0.0257971
-0.0290261
-0.0315743
-0.0338726
-0.0360878
-0.0378739
-0.0397104
-0.0410252
-0.0424447
-0.0432721
-0.0442665
-0.0446271
-0.0452206
-0.0451724
-0.045422
-0.0450566
-0.045048
-0.0444839
-0.0443236
-0.0436942
-0.0434986
-0.042939
-0.0428208
-0.0424527
-0.0425071
-0.0424254
-0.0427189
-0.0429808
-0.0435428
-0.0441615
-0.0449802
-0.0459244
-0.0469485
-0.0481449
-0.0492891
-0.0506305
-0.0517838
-0.0531396
-0.0541767
-0.0554041
-0.0561963
-0.0571537
-0.05758
-0.0581375
-0.0580948
-0.0581448
-0.0575558
-0.0570214
-0.0558407
-0.0546814
-0.0528995
-0.051115
-0.0487595
-0.0462561
-0.0433645
-0.0395014
-0.0346289
-0.0285482
-0.0210828
-0.0128251
-0.00331672
0.00619798
0.0167095
0.0262776
0.0364373
0.0450635
0.0539288
0.061145
0.0683898
0.0741989
0.0798396
0.084719
0.089355
0.094112
0.0987099
0.103382
0.107235
0.109397
0.114036
0.111872
0.108124
0.10329
0.098139
0.0927728
0.0872485
0.0816352
0.0754415
0.0691837
0.0620324
0.0548845
0.0468374
0.0388762
0.0302478
0.0219053
0.0134185
0.00549704
-0.00191676
-0.00857039
-0.0143067
-0.0191838
-0.0230734
-0.0263088
-0.0288289
-0.0310868
-0.0332011
-0.034921
-0.0365962
-0.0378236
-0.0390455
-0.0397666
-0.0405328
-0.040772
-0.0411156
-0.0409358
-0.040924
-0.0404231
-0.0401529
-0.0394556
-0.0390449
-0.0382909
-0.0378666
-0.0371967
-0.0368807
-0.0364213
-0.0363165
-0.036166
-0.0363443
-0.036562
-0.037056
-0.0376562
-0.0384555
-0.0394063
-0.0404586
-0.041685
-0.042902
-0.0442942
-0.04556
-0.0469838
-0.0481666
-0.0494756
-0.0504386
-0.0514864
-0.0521003
-0.0527526
-0.0529055
-0.0530504
-0.0526564
-0.0522129
-0.0512193
-0.0501439
-0.048535
-0.046825
-0.0445935
-0.0421492
-0.039309
-0.0354708
-0.0306026
-0.0245131
-0.0171365
-0.00887945
0.000377107
0.0098154
0.0198592
0.0292428
0.0388221
0.0471757
0.0554896
0.0624006
0.0692026
0.0747399
0.0801358
0.0848432
0.0894921
0.0942019
0.0988544
0.103519
0.107234
0.109436
0.114465
0.112302
0.108553
0.103724
0.098434
0.0930691
0.0876659
0.082055
0.0762585
0.0700146
0.0634796
0.0563609
0.0489878
0.0410708
0.0330272
0.0247398
0.0166117
0.00874587
0.00140084
-0.00520908
-0.0110396
-0.0158913
-0.0198969
-0.0231265
-0.0256417
-0.0278982
-0.0298306
-0.0315495
-0.0329556
-0.0341824
-0.0350698
-0.0357904
-0.0361669
-0.0364059
-0.0363189
-0.0361393
-0.0356744
-0.0351738
-0.0344481
-0.0337512
-0.0329029
-0.0321494
-0.0313251
-0.0306556
-0.029994
-0.0295349
-0.0291529
-0.0290024
-0.0289822
-0.0291997
-0.0295799
-0.0301798
-0.0309518
-0.031902
-0.0330115
-0.0342371
-0.0355896
-0.036981
-0.0384512
-0.0398742
-0.0413179
-0.0426261
-0.0438923
-0.0449395
-0.045883
-0.0465349
-0.0470279
-0.0471727
-0.0471145
-0.0466713
-0.0459958
-0.0449211
-0.0436024
-0.0418934
-0.039892
-0.0374491
-0.0346564
-0.0308264
-0.0259588
-0.0199048
-0.012675
-0.0044762
0.0044044
0.0137733
0.0231336
0.0324531
0.0411465
0.0494531
0.0568346
0.0637196
0.069724
0.0752552
0.0801953
0.0849101
0.0894907
0.0942059
0.0990831
0.103745
0.107537
0.109738
0.11606
0.113888
0.109203
0.104299
0.0987875
0.0934003
0.0882708
0.0826555
0.077433
0.0712127
0.0653509
0.0582717
0.0515517
0.0436843
0.0360785
0.0278517
0.0198041
0.0119938
0.0044742
-0.00209459
-0.00813137
-0.0129597
-0.0169013
-0.020125
-0.0223772
-0.024632
-0.026331
-0.0280484
-0.0291741
-0.0303994
-0.0309247
-0.0316441
-0.0315869
-0.0318248
-0.031249
-0.0310684
-0.0300807
-0.0295794
-0.0283217
-0.0276242
-0.0262609
-0.0255069
-0.0242098
-0.0235399
-0.0224709
-0.0220113
-0.0213061
-0.0211552
-0.0209095
-0.0211265
-0.0213867
-0.021986
-0.0227451
-0.0236947
-0.0248942
-0.0261193
-0.0276554
-0.0290464
-0.0307801
-0.0322028
-0.0339728
-0.0352809
-0.0369169
-0.0379642
-0.0393009
-0.0399532
-0.0408426
-0.0409881
-0.041311
-0.0408689
-0.0405437
-0.0394703
-0.0384591
-0.0367518
-0.0350639
-0.032623
-0.0302562
-0.0264343
-0.021772
-0.0157511
-0.00841891
-0.000276294
0.00860342
0.0178999
0.0269178
0.0361626
0.0441051
0.0523554
0.0587815
0.0656257
0.070703
0.0762157
0.0803999
0.0851287
0.0893895
0.0941356
0.0993619
0.104116
0.109007
0.11122
0.116786
0.11444
0.109761
0.10456
0.0990512
0.0935556
0.0884206
0.0829897
0.0777828
0.0720173
0.0661801
0.0597502
0.0530696
0.0459207
0.0383762
0.0307606
0.022775
0.0153323
0.00785342
0.00141129
-0.00460119
-0.0094012
-0.0133145
-0.0164638
-0.018693
-0.0207833
-0.0224812
-0.0239405
-0.0250655
-0.0259397
-0.0264646
-0.0267477
-0.0266905
-0.0264222
-0.0258468
-0.0251111
-0.0241241
-0.023044
-0.0217872
-0.0205148
-0.0191525
-0.0178553
-0.0165591
-0.0154037
-0.0143355
-0.0134708
-0.0127661
-0.0123083
-0.0120627
-0.0120836
-0.0123436
-0.0128636
-0.0136222
-0.0146095
-0.0158082
-0.0171819
-0.0187169
-0.0203556
-0.0220882
-0.0238414
-0.0256102
-0.0273113
-0.0289462
-0.0304264
-0.0317621
-0.0328637
-0.0337525
-0.034341
-0.0346637
-0.0346379
-0.0343128
-0.0336126
-0.0326021
-0.0312134
-0.0295266
-0.0273472
-0.0250075
-0.0213964
-0.0167779
-0.0109815
-0.0036923
0.00405183
0.0128685
0.0214704
0.0304039
0.0387002
0.0465681
0.0537991
0.0601835
0.0661565
0.071212
0.0761606
0.0803364
0.0849055
0.0891816
0.0941634
0.0993925
0.104578
0.109464
0.111906
0.117571
0.115037
0.110355
0.104843
0.099336
0.0937233
0.0885824
0.0833507
0.0781423
0.0728826
0.0670582
0.0613468
0.0546962
0.0483357
0.0408381
0.0338945
0.0259665
0.0189286
0.0115055
0.00520776
-0.000763379
-0.00552661
-0.0094213
-0.0124873
-0.0147147
-0.0166274
-0.0183239
-0.0195047
-0.0206288
-0.0211238
-0.0216483
-0.0214604
-0.0214032
-0.0205883
-0.0200133
-0.0186781
-0.0176919
-0.0159868
-0.0147309
-0.0128378
-0.0114765
-0.00959275
-0.00829755
-0.00661794
-0.00555051
-0.00424835
-0.00354418
-0.00275505
-0.00250967
-0.00231871
-0.00257846
-0.00301295
-0.00377096
-0.00479894
-0.00599672
-0.00753084
-0.00906473
-0.010971
-0.0127022
-0.0148124
-0.0165799
-0.0187054
-0.020339
-0.0222867
-0.0236214
-0.0252082
-0.0260963
-0.0271631
-0.0274856
-0.0279093
-0.0275845
-0.0272873
-0.0262775
-0.0252327
-0.0235473
-0.0216501
-0.0193124
-0.0159396
-0.0113466
-0.00581235
0.00142145
0.00871502
0.0174603
0.0252949
0.0341587
0.0414122
0.0492277
0.0553414
0.0616974
0.0667074
0.0717579
0.0760793
0.0802678
0.0846645
0.0889571
0.0941933
0.0994255
0.10507
0.109957
0.112646
0.117172
0.114616
0.110448
0.104947
0.0993861
0.0937684
0.0884426
0.0832448
0.0780865
0.0729232
0.0674754
0.0619158
0.0559128
0.0497336
0.0430861
0.0363152
0.0292605
0.0223537
0.0155852
0.00936749
0.003753
-0.000967454
-0.00481679
-0.00785694
-0.0101102
-0.0119875
-0.0135208
-0.0146472
-0.015478
-0.0159
-0.0160452
-0.015767
-0.0152561
-0.0143369
-0.0132515
-0.0118022
-0.0102712
-0.00844739
-0.00663743
-0.00462653
-0.00272779
-0.000732847
0.001058
0.00283704
0.00433558
0.00572077
0.00677214
0.00762429
0.00811801
0.0083495
0.00822937
0.00781157
0.00708011
0.00604501
0.00476219
0.00319833
0.00147509
-0.000481265
-0.00249337
-0.00467054
-0.00679298
-0.00899851
-0.0110401
-0.0130762
-0.0148486
-0.0165274
-0.0178597
-0.0190175
-0.0197683
-0.020278
-0.0203468
-0.0201271
-0.0194617
-0.0184836
-0.0170293
-0.0151875
-0.0128808
-0.00957256
-0.00520655
0.000219668
0.00674822
0.0138795
0.0215677
0.0291848
0.0367971
0.0437987
0.0504666
0.0563354
0.0618535
0.0666697
0.0712857
0.0754964
0.0797418
0.0841197
0.0888202
0.094094
0.0995377
0.105184
0.10951
0.11223
0.119046
0.116495
0.110991
0.105442
0.0992117
0.0935728
0.0881428
0.0829203
0.0780752
0.0728979
0.0680978
0.0625429
0.0574656
0.0513135
0.045676
0.0389538
0.032707
0.0258593
0.0195494
0.0133843
0.00796021
0.00327299
-0.00039687
-0.00342876
-0.00544088
-0.00731657
-0.00858131
-0.00970681
-0.0101629
-0.0105845
-0.0102162
-0.00993831
-0.00879052
-0.00787209
-0.00605197
-0.00460397
-0.00227455
-0.000452327
0.0021799
0.00418903
0.00689125
0.00888444
0.0114179
0.0131954
0.015337
0.0167209
0.0182832
0.0191346
0.0199827
0.0202139
0.0202763
0.0198589
0.0191331
0.0180989
0.0166501
0.0150876
0.0130413
0.0110867
0.00861777
0.00644251
0.00375976
0.00155618
-0.00111419
-0.00314848
-0.00558074
-0.00725805
-0.00924383
-0.0104007
-0.0117645
-0.0122737
-0.0128862
-0.0126667
-0.0124545
-0.0114773
-0.0104246
-0.00858444
-0.00672262
-0.00342511
0.000522989
0.00590489
0.0119583
0.0190212
0.0258848
0.0334282
0.0398179
0.0467623
0.052013
0.0578549
0.0621119
0.0669315
0.070689
0.074928
0.0788046
0.0832242
0.0881581
0.0934571
0.0998697
0.105573
0.111537
0.114252
0.119845
0.117061
0.111539
0.105503
0.0992638
0.0931923
0.0877388
0.0823091
0.0774676
0.0724192
0.0676422
0.0625803
0.0575583
0.0522194
0.0466777
0.0409304
0.0347849
0.0288236
0.0225865
0.0170293
0.011649
0.00726194
0.00362493
0.000707979
-0.00130176
-0.00305946
-0.00430741
-0.00518933
-0.005624
-0.00565224
-0.00525527
-0.00444438
-0.00326135
-0.00169152
0.000168968
0.00235599
0.0047291
0.00734002
0.0100171
0.0128225
0.0155685
0.0183221
0.0208961
0.0233571
0.0255338
0.0274878
0.029078
0.0303564
0.0312239
0.0317182
0.0317908
0.0314613
0.0307362
0.0296143