/*--------------------------------*- C++ -*----------------------------------*\
| =========                 |                                                 |
| \\      /  F ield         | OpenFOAM: The Open Source CFD Toolbox           |
|  \\    /   O peration     | Version:  v2106                                 |
|   \\  /    A nd           | Website:  www.openfoam.com                      |
|    \\/     M anipulation  |                                                 |
\*---------------------------------------------------------------------------*/
FoamFile
{
    version     2.0;
    format      ascii;
    arch        "LSB;label=32;scalar=64";
    class       volScalarField;
    location    "0";
    object      expGpCoeffs18;
}
// * * * * * * * * * * * * * * * * * * * * * * * * * * * * * * * * * * * * * //

dimensions      [0 0 0 0 0 0 0];

internalField   nonuniform List<scalar> 
8000
(
0.0457596
0.0452563
0.0435783
0.0402698
0.0349091
0.028011
0.0205076
0.0124995
0.00497279
-0.00215877
-0.0085798
-0.0142754
-0.0192621
-0.0235375
-0.0271741
-0.030214
-0.0328085
-0.0349936
-0.0370355
-0.0389445
-0.0410252
-0.0432714
-0.0458514
-0.0487483
-0.051891
-0.0552813
-0.0587967
-0.0624311
-0.0661463
-0.0699399
-0.0737956
-0.0777111
-0.0816698
-0.0856693
-0.0896925
-0.0937368
-0.0977843
-0.101832
-0.105862
-0.109869
-0.113835
-0.117755
-0.121608
-0.12539
-0.129079
-0.13267
-0.13614
-0.139486
-0.142683
-0.145728
-0.148596
-0.151284
-0.153768
-0.156044
-0.15809
-0.159901
-0.161457
-0.162753
-0.163771
-0.164508
-0.164948
-0.165089
-0.16492
-0.164439
-0.163642
-0.162529
-0.161103
-0.159365
-0.157325
-0.154986
-0.152367
-0.149472
-0.146326
-0.142935
-0.139439
-0.13586
-0.132833
-0.130386
-0.129314
-0.129608
-0.131281
-0.134298
-0.137968
-0.142264
-0.146367
-0.150268
-0.153367
-0.155644
-0.156883
-0.157079
-0.15622
-0.154312
-0.151399
-0.147383
-0.142503
-0.136554
-0.13003
-0.122969
-0.117234
-0.113583
0.0458002
0.0452969
0.0437632
0.0404573
0.0350177
0.0281209
0.0205021
0.0124904
0.00492478
-0.00221115
-0.00863342
-0.0143324
-0.0193127
-0.0235907
-0.027216
-0.0302577
-0.0328312
-0.035017
-0.0370329
-0.0389418
-0.0409997
-0.0432455
-0.0458242
-0.0487208
-0.0518787
-0.0552686
-0.0587897
-0.0624237
-0.0661408
-0.0699339
-0.0737917
-0.0777067
-0.0816675
-0.0856664
-0.0896917
-0.0937355
-0.0977852
-0.101833
-0.105864
-0.109872
-0.11384
-0.117759
-0.121615
-0.125397
-0.129088
-0.132679
-0.136152
-0.139497
-0.142697
-0.145741
-0.148612
-0.1513
-0.153786
-0.156062
-0.15811
-0.159921
-0.161478
-0.162775
-0.163795
-0.164532
-0.164973
-0.165114
-0.164945
-0.164464
-0.163668
-0.162555
-0.161128
-0.15939
-0.157348
-0.15501
-0.152388
-0.149493
-0.146345
-0.142954
-0.139435
-0.135857
-0.132745
-0.130298
-0.12918
-0.129475
-0.131195
-0.134213
-0.137953
-0.14225
-0.146418
-0.150318
-0.153451
-0.155727
-0.15697
-0.157163
-0.156304
-0.154393
-0.151483
-0.147463
-0.14257
-0.136617
-0.130047
-0.122986
-0.11694
-0.113289
0.0458439
0.0453408
0.043963
0.0406598
0.035135
0.0282395
0.0204963
0.0124805
0.00487294
-0.00226772
-0.00869131
-0.014394
-0.0193674
-0.0236481
-0.0272613
-0.0303048
-0.0328558
-0.0350424
-0.0370301
-0.038939
-0.0409722
-0.0432175
-0.0457949
-0.0486911
-0.0518654
-0.0552548
-0.0587823
-0.0624157
-0.066135
-0.0699276
-0.0737875
-0.077702
-0.0816649
-0.0856633
-0.0896909
-0.0937341
-0.0977863
-0.101833
-0.105867
-0.109874
-0.113845
-0.117764
-0.121622
-0.125403
-0.129097
-0.132688
-0.136164
-0.139509
-0.142711
-0.145755
-0.148629
-0.151316
-0.153805
-0.156081
-0.158131
-0.159942
-0.161502
-0.162798
-0.16382
-0.164557
-0.165
-0.16514
-0.164972
-0.164492
-0.163695
-0.162583
-0.161155
-0.159417
-0.157374
-0.155035
-0.152411
-0.149516
-0.146365
-0.142974
-0.139431
-0.135853
-0.13265
-0.130204
-0.129035
-0.129331
-0.131102
-0.134122
-0.137936
-0.142234
-0.146474
-0.150374
-0.153542
-0.155816
-0.157063
-0.157255
-0.156395
-0.15448
-0.151574
-0.147549
-0.142642
-0.136686
-0.130065
-0.123004
-0.116621
-0.112972
0.0458912
0.0453882
0.0441787
0.0408785
0.0352616
0.0283676
0.0204899
0.0124699
0.00481696
-0.00232881
-0.00875383
-0.0144605
-0.0194264
-0.0237101
-0.0273102
-0.0303557
-0.0328823
-0.0350697
-0.0370271
-0.0389359
-0.0409424
-0.0431873
-0.0457633
-0.0486589
-0.0518511
-0.05524
-0.0587742
-0.0624071
-0.0661286
-0.0699207
-0.0737829
-0.0776968
-0.0816622
-0.08566
-0.08969
-0.0937327
-0.0977874
-0.101834
-0.105871
-0.109877
-0.11385
-0.117769
-0.12163
-0.125411
-0.129108
-0.132698
-0.136177
-0.139522
-0.142727
-0.145771
-0.148647
-0.151334
-0.153826
-0.156101
-0.158154
-0.159965
-0.161527
-0.162824
-0.163847
-0.164584
-0.165028
-0.165169
-0.165002
-0.164522
-0.163725
-0.162612
-0.161184
-0.159446
-0.157401
-0.155063
-0.152436
-0.149542
-0.146386
-0.142996
-0.139427
-0.13585
-0.132547
-0.130101
-0.128879
-0.129176
-0.131002
-0.134023
-0.137919
-0.142218
-0.146534
-0.150433
-0.153641
-0.155913
-0.157165
-0.157353
-0.156493
-0.154574
-0.151673
-0.147642
-0.142719
-0.136759
-0.130085
-0.123024
-0.116278
-0.112629
0.0459422
0.0454394
0.0444116
0.0411436
0.0353984
0.0285059
0.020483
0.0124583
0.00475651
-0.00239477
-0.00882133
-0.0145323
-0.0194901
-0.023777
-0.027363
-0.0304107
-0.0329109
-0.0350993
-0.0370238
-0.0389326
-0.0409103
-0.0431547
-0.0457291
-0.0486243
-0.0518356
-0.0552239
-0.0587654
-0.0623977
-0.0661218
-0.0699132
-0.073778
-0.0776913
-0.0816592
-0.0856564
-0.0896891
-0.0937311
-0.0977886
-0.101834
-0.105874
-0.10988
-0.113856
-0.117774
-0.121639
-0.125419
-0.129119
-0.132709
-0.136191
-0.139535
-0.142744
-0.145787
-0.148667
-0.151353
-0.153848
-0.156123
-0.158179
-0.15999
-0.161555
-0.162851
-0.163877
-0.164614
-0.165059
-0.1652
-0.165034
-0.164554
-0.163757
-0.162645
-0.161215
-0.159477
-0.15743
-0.155093
-0.152463
-0.149569
-0.146409
-0.14302
-0.139423
-0.135846
-0.132436
-0.129991
-0.128711
-0.129009
-0.130894
-0.133916
-0.1379
-0.1422
-0.146598
-0.150497
-0.153747
-0.156017
-0.157274
-0.157459
-0.156598
-0.154676
-0.151779
-0.147743
-0.142803
-0.136839
-0.130102
-0.123045
-0.115906
-0.112258
0.0461225
0.0456301
0.044825
0.0416084
0.0356665
0.0288742
0.0205306
0.0125651
0.00469924
-0.00244167
-0.00887801
-0.0145799
-0.0195403
-0.023822
-0.0274161
-0.0304672
-0.0329418
-0.0351312
-0.0370202
-0.038929
-0.0408756
-0.0431195
-0.0456922
-0.0485868
-0.051841
-0.0552334
-0.0587819
-0.0624188
-0.0661451
-0.0699416
-0.0738088
-0.0777275
-0.0816979
-0.0857009
-0.0897362
-0.0937843
-0.0978444
-0.101896
-0.105939
-0.109951
-0.11393
-0.117855
-0.121722
-0.125509
-0.129212
-0.132808
-0.136293
-0.139642
-0.142855
-0.145902
-0.148785
-0.151476
-0.153974
-0.156253
-0.158312
-0.160126
-0.161693
-0.162992
-0.16402
-0.164758
-0.165206
-0.165348
-0.165183
-0.164703
-0.163906
-0.162793
-0.161363
-0.159625
-0.157575
-0.155236
-0.152603
-0.149707
-0.146544
-0.143152
-0.139527
-0.135947
-0.132316
-0.129872
-0.128529
-0.128828
-0.130777
-0.133801
-0.137879
-0.14218
-0.146683
-0.150576
-0.153915
-0.156147
-0.157418
-0.15758
-0.156721
-0.154786
-0.151901
-0.147844
-0.14286
-0.136888
-0.130089
-0.123024
-0.115635
-0.111984
0.046584
0.04611
0.0453075
0.0421102
0.036178
0.0293671
0.0210345
0.0130101
0.00515401
-0.00207598
-0.0085049
-0.0143125
-0.019268
-0.0236603
-0.0272518
-0.0304077
-0.0328855
-0.035162
-0.037048
-0.0390136
-0.0409598
-0.0432418
-0.0458318
-0.0487705
-0.0520516
-0.0554917
-0.0590396
-0.062729
-0.0664547
-0.0703092
-0.0741757
-0.0781574
-0.0821271
-0.0861972
-0.0902316
-0.0943498
-0.0984092
-0.102533
-0.106575
-0.110659
-0.114638
-0.118633
-0.1225
-0.126355
-0.130058
-0.133719
-0.137204
-0.140615
-0.143826
-0.14693
-0.149812
-0.152553
-0.15505
-0.157372
-0.159431
-0.16128
-0.162847
-0.164174
-0.165202
-0.165961
-0.166408
-0.166563
-0.166398
-0.165922
-0.165126
-0.164009
-0.162579
-0.160829
-0.158781
-0.156422
-0.15379
-0.150867
-0.147704
-0.144278
-0.140654
-0.137032
-0.133269
-0.130772
-0.129312
-0.129624
-0.131537
-0.134579
-0.138645
-0.142899
-0.147418
-0.151179
-0.154505
-0.156595
-0.157854
-0.157876
-0.157008
-0.154945
-0.152053
-0.147896
-0.142907
-0.136875
-0.130075
-0.122992
-0.115604
-0.111953
0.0470823
0.0466282
0.0458286
0.0426521
0.0367305
0.0298992
0.0215786
0.0134908
0.00564509
-0.00168109
-0.00810199
-0.0140238
-0.0189739
-0.0234856
-0.0270743
-0.0303434
-0.0328206
-0.0351949
-0.0370816
-0.0391262
-0.0410734
-0.0434175
-0.0460078
-0.0489986
-0.052279
-0.0557707
-0.0593178
-0.063064
-0.0667889
-0.0707062
-0.0745719
-0.0786217
-0.0825905
-0.086733
-0.0907667
-0.0949604
-0.099019
-0.10322
-0.107261
-0.111423
-0.115401
-0.119474
-0.12334
-0.12727
-0.130972
-0.134704
-0.138188
-0.141665
-0.144875
-0.148039
-0.150921
-0.153716
-0.156212
-0.158581
-0.160639
-0.162527
-0.164094
-0.165451
-0.166479
-0.16726
-0.167707
-0.167875
-0.16771
-0.167239
-0.166443
-0.165323
-0.163892
-0.16213
-0.160082
-0.157703
-0.155071
-0.152119
-0.148957
-0.145494
-0.141871
-0.138203
-0.134441
-0.131889
-0.130425
-0.130669
-0.132571
-0.135523
-0.139574
-0.143709
-0.148212
-0.15183
-0.155142
-0.157078
-0.158325
-0.158195
-0.157317
-0.155117
-0.152218
-0.147951
-0.142958
-0.136861
-0.13006
-0.122957
-0.115571
-0.11192
0.0476205
0.0471878
0.0463913
0.0432373
0.037327
0.0304739
0.0221662
0.0140097
0.00617538
-0.00125468
-0.00766692
-0.013712
-0.0186564
-0.023297
-0.0268827
-0.030274
-0.0327505
-0.0352304
-0.037118
-0.0392478
-0.0411961
-0.0436072
-0.0461977
-0.0492449
-0.0525245
-0.0560719
-0.0596182
-0.0634257
-0.0671498
-0.0711349
-0.0749997
-0.079123
-0.083091
-0.0873116
-0.0913444
-0.0956198
-0.0996775
-0.103962
-0.108003
-0.112249
-0.116226
-0.120381
-0.124247
-0.128257
-0.131958
-0.135767
-0.13925
-0.142798
-0.146008
-0.149237
-0.152118
-0.154971
-0.157467
-0.159886
-0.161943
-0.163873
-0.16544
-0.16683
-0.167858
-0.168662
-0.169109
-0.169292
-0.169126
-0.168661
-0.167865
-0.16674
-0.165311
-0.163535
-0.161487
-0.159086
-0.156455
-0.153472
-0.15031
-0.146807
-0.143184
-0.139468
-0.135707
-0.133095
-0.131626
-0.131797
-0.133687
-0.136542
-0.140577
-0.144584
-0.14907
-0.152534
-0.15583
-0.157599
-0.158834
-0.158539
-0.157651
-0.155302
-0.152395
-0.148011
-0.143013
-0.136846
-0.130043
-0.12292
-0.115535
-0.111885
0.0482016
0.047792
0.0469989
0.0438692
0.0379711
0.0310944
0.0228007
0.0145701
0.00674801
-0.000794215
-0.00719712
-0.0133753
-0.0183135
-0.0230934
-0.0266758
-0.030199
-0.0326748
-0.0352687
-0.0371572
-0.0393791
-0.0413286
-0.0438121
-0.0464029
-0.0495108
-0.0527897
-0.0563971
-0.0599426
-0.0638163
-0.0675395
-0.0715978
-0.0754617
-0.0796643
-0.0836314
-0.0879365
-0.0919683
-0.0963319
-0.100389
-0.104764
-0.108803
-0.11314
-0.117116
-0.121362
-0.125226
-0.129323
-0.133023
-0.136915
-0.140397
-0.144022
-0.147232
-0.150531
-0.153412
-0.156327
-0.158822
-0.161295
-0.163352
-0.165327
-0.166893
-0.168319
-0.169346
-0.170176
-0.170623
-0.170821
-0.170656
-0.170196
-0.1694
-0.168272
-0.166842
-0.165052
-0.163005
-0.160579
-0.157949
-0.154932
-0.151771
-0.148225
-0.144603
-0.140834
-0.137074
-0.134398
-0.132924
-0.133016
-0.134892
-0.137643
-0.141659
-0.145528
-0.149996
-0.153294
-0.156573
-0.158162
-0.159383
-0.158911
-0.158012
-0.155502
-0.152587
-0.148076
-0.143072
-0.13683
-0.130026
-0.122879
-0.115496
-0.111847
0.048829
0.0484445
0.0476551
0.0445516
0.0386667
0.0317645
0.0234858
0.0151753
0.00736637
-0.000296991
-0.0066898
-0.0130118
-0.0179432
-0.0228735
-0.0264524
-0.0301181
-0.0325931
-0.0353101
-0.0371995
-0.0395209
-0.0414717
-0.0440333
-0.0466244
-0.0497979
-0.053076
-0.0567483
-0.0602929
-0.0642381
-0.0679604
-0.0720977
-0.0759606
-0.0802489
-0.0842149
-0.0886112
-0.092642
-0.0971007
-0.101156
-0.105629
-0.109667
-0.114102
-0.118078
-0.12242
-0.126283
-0.130474
-0.134174
-0.138154
-0.141636
-0.145344
-0.148553
-0.151928
-0.154808
-0.157791
-0.160286
-0.162817
-0.164873
-0.166897
-0.168463
-0.169926
-0.170954
-0.171811
-0.172258
-0.172473
-0.172308
-0.171854
-0.171058
-0.169925
-0.168496
-0.16669
-0.164644
-0.162192
-0.159562
-0.156509
-0.153349
-0.149756
-0.146135
-0.142309
-0.13855
-0.135804
-0.134324
-0.134332
-0.136194
-0.138831
-0.142829
-0.146548
-0.150996
-0.154114
-0.157375
-0.158771
-0.159976
-0.159313
-0.158401
-0.155718
-0.152794
-0.148146
-0.143137
-0.136812
-0.130007
-0.122835
-0.115454
-0.111805
0.0495066
0.049149
0.0483636
0.0452884
0.0394179
0.0324881
0.0242256
0.0158288
0.00803409
0.000239932
-0.00614198
-0.0126192
-0.0175434
-0.022636
-0.0262111
-0.0300307
-0.0325048
-0.0353547
-0.0372452
-0.039674
-0.0416262
-0.0442722
-0.0468636
-0.050108
-0.0533852
-0.0571276
-0.0606712
-0.0646936
-0.0684148
-0.0726374
-0.0764993
-0.0808801
-0.0848451
-0.0893398
-0.0933695
-0.097931
-0.101986
-0.106564
-0.110601
-0.115142
-0.119116
-0.123563
-0.127425
-0.131717
-0.135416
-0.139493
-0.142973
-0.146772
-0.149979
-0.153437
-0.156316
-0.159371
-0.161866
-0.16446
-0.166516
-0.168592
-0.170157
-0.171663
-0.172689
-0.173577
-0.174024
-0.174257
-0.174092
-0.173645
-0.172849
-0.17171
-0.170282
-0.168459
-0.166413
-0.163933
-0.161304
-0.158211
-0.155052
-0.151409
-0.14779
-0.143902
-0.140144
-0.137323
-0.135837
-0.135753
-0.1376
-0.140114
-0.144091
-0.14765
-0.152075
-0.155
-0.158241
-0.159427
-0.160617
-0.159747
-0.158822
-0.155952
-0.153017
-0.148222
-0.143206
-0.136793
-0.129986
-0.122788
-0.115408
-0.111761
0.0505673
0.0502206
0.0494655
0.0463403
0.0405935
0.0335556
0.0253512
0.0168403
0.00898312
0.00108778
-0.00535978
-0.0119579
-0.0169754
-0.0221929
-0.0258915
-0.0298231
-0.0324088
-0.035362
-0.0373265
-0.0398535
-0.0418485
-0.0445783
-0.0472143
-0.0505164
-0.0538759
-0.0576665
-0.0612614
-0.0653369
-0.0691186
-0.0733999
-0.077328
-0.0817726
-0.0858088
-0.0903713
-0.0944762
-0.0991085
-0.103241
-0.107892
-0.112007
-0.116621
-0.120674
-0.125193
-0.129132
-0.133494
-0.137266
-0.141409
-0.144959
-0.148819
-0.15209
-0.155604
-0.158541
-0.161646
-0.164191
-0.166828
-0.168927
-0.171039
-0.172638
-0.174172
-0.175225
-0.176133
-0.176598
-0.176843
-0.176687
-0.176244
-0.175449
-0.174307
-0.172871
-0.171037
-0.168975
-0.166476
-0.163823
-0.160704
-0.157513
-0.153836
-0.150193
-0.146263
-0.142287
-0.139408
-0.137862
-0.137625
-0.13951
-0.141817
-0.145803
-0.149162
-0.153513
-0.156281
-0.159357
-0.160408
-0.161402
-0.160387
-0.1593
-0.156291
-0.153221
-0.148326
-0.143196
-0.136718
-0.129895
-0.122679
-0.115669
-0.112027
0.0520742
0.0517293
0.0506745
0.0475658
0.0420224
0.0350209
0.0269758
0.0185099
0.0104969
0.0026407
-0.00413817
-0.0107078
-0.0161122
-0.0213114
-0.0254072
-0.0293298
-0.0323026
-0.0352548
-0.0375647
-0.0400949
-0.0423703
-0.0451032
-0.0479227
-0.0512246
-0.0547096
-0.0584989
-0.062251
-0.0663252
-0.0702913
-0.0745712
-0.0787016
-0.0831447
-0.0873983
-0.0919594
-0.0962935
-0.100924
-0.105294
-0.109943
-0.114299
-0.118912
-0.123203
-0.127721
-0.131893
-0.136254
-0.14025
-0.144392
-0.148152
-0.152011
-0.155476
-0.158989
-0.162099
-0.165204
-0.1679
-0.170537
-0.172764
-0.174876
-0.176579
-0.178113
-0.179244
-0.180152
-0.180669
-0.180915
-0.180786
-0.180343
-0.179549
-0.178408
-0.176948
-0.175114
-0.173004
-0.170506
-0.167781
-0.164662
-0.161375
-0.157699
-0.153982
-0.150053
-0.146134
-0.143251
-0.141628
-0.141364
-0.142883
-0.145146
-0.148629
-0.151936
-0.15571
-0.158429
-0.160951
-0.161963
-0.162462
-0.161417
-0.159873
-0.156844
-0.153372
-0.148467
-0.143094
-0.136615
-0.129772
-0.122559
-0.116302
-0.11266
0.0537111
0.053368
0.0523695
0.0492759
0.0436697
0.0367052
0.0287302
0.0203128
0.0121316
0.00431762
-0.00281902
-0.00935779
-0.0151801
-0.0203594
-0.0248842
-0.0287972
-0.032188
-0.0351391
-0.0378219
-0.0403555
-0.0429337
-0.04567
-0.0486876
-0.0519893
-0.0556099
-0.0593979
-0.0633196
-0.0673923
-0.0715576
-0.0758361
-0.0801848
-0.0846264
-0.0891148
-0.0936743
-0.0982559
-0.102885
-0.10751
-0.112158
-0.116774
-0.121385
-0.125935
-0.13045
-0.134875
-0.139235
-0.143472
-0.147613
-0.1516
-0.155458
-0.159131
-0.162643
-0.165941
-0.169045
-0.171906
-0.174542
-0.176908
-0.179019
-0.180835
-0.182368
-0.183584
-0.184492
-0.185066
-0.185311
-0.185211
-0.184769
-0.183977
-0.182835
-0.18135
-0.179517
-0.177355
-0.174857
-0.172054
-0.168936
-0.165546
-0.161871
-0.158074
-0.154147
-0.150288
-0.147401
-0.145694
-0.145401
-0.146526
-0.148741
-0.151681
-0.154931
-0.158082
-0.160749
-0.162673
-0.163642
-0.163607
-0.16253
-0.160491
-0.15744
-0.153536
-0.14862
-0.143023
-0.136543
-0.129647
-0.122436
-0.116886
-0.113244
0.0556321
0.0552913
0.054909
0.0518497
0.0460458
0.0391442
0.0306548
0.0222908
0.0136734
0.00589779
-0.00167042
-0.00818379
-0.0144528
-0.019618
-0.0245604
-0.028469
-0.0322068
-0.0351598
-0.0381143
-0.0406518
-0.0434426
-0.0461817
-0.0493873
-0.0526887
-0.0565057
-0.0602923
-0.0644237
-0.0684949
-0.0728848
-0.0771616
-0.0817562
-0.0861961
-0.0909488
-0.0955066
-0.100367
-0.104994
-0.109908
-0.114554
-0.119463
-0.124072
-0.128915
-0.133429
-0.138141
-0.142498
-0.147012
-0.151151
-0.155398
-0.159254
-0.163168
-0.166678
-0.170193
-0.173296
-0.176348
-0.178983
-0.181512
-0.183622
-0.185571
-0.187103
-0.188421
-0.189328
-0.189971
-0.190216
-0.190152
-0.18971
-0.18892
-0.187779
-0.186262
-0.18443
-0.182204
-0.179707
-0.176807
-0.17369
-0.170171
-0.166498
-0.162493
-0.158568
-0.154361
-0.15147
-0.149479
-0.14916
-0.150085
-0.152254
-0.154945
-0.158135
-0.160942
-0.163545
-0.164994
-0.165906
-0.165291
-0.164168
-0.161564
-0.158477
-0.154119
-0.149179
-0.143186
-0.136696
-0.129525
-0.122315
-0.115903
-0.112264
0.057706
0.0573694
0.0575235
0.0544538
0.048605
0.0417195
0.0327332
0.024427
0.0153179
0.00758338
-0.000451108
-0.00693741
-0.0136849
-0.0188352
-0.0242351
-0.028139
-0.0322502
-0.0352052
-0.038433
-0.0409749
-0.043969
-0.046711
-0.0501193
-0.0534202
-0.0574689
-0.061254
-0.0656132
-0.0696828
-0.0743157
-0.0785908
-0.0834515
-0.0878896
-0.0929283
-0.0974842
-0.102646
-0.107272
-0.112498
-0.117142
-0.122368
-0.126976
-0.132135
-0.136647
-0.141669
-0.146025
-0.150837
-0.154974
-0.159503
-0.163357
-0.167531
-0.17104
-0.174791
-0.177892
-0.181151
-0.183785
-0.186491
-0.1886
-0.190693
-0.192224
-0.193652
-0.194559
-0.195276
-0.195522
-0.195496
-0.195054
-0.194266
-0.193126
-0.191575
-0.189744
-0.187447
-0.184952
-0.181946
-0.178831
-0.175172
-0.171501
-0.167266
-0.163341
-0.158682
-0.155787
-0.153425
-0.153078
-0.153852
-0.155971
-0.158464
-0.16159
-0.16406
-0.166594
-0.167529
-0.168378
-0.167144
-0.16597
-0.16276
-0.159633
-0.154752
-0.149785
-0.143336
-0.136852
-0.129369
-0.12216
-0.114859
-0.111218
0.0599167
0.0596779
0.0598449
0.0569031
0.051107
0.0441872
0.0352486
0.0267429
0.0176324
0.00957375
0.00153256
-0.00537079
-0.0121364
-0.0177524
-0.0231943
-0.0275602
-0.0317207
-0.0350844
-0.0383545
-0.0412223
-0.044254
-0.0472372
-0.0506788
-0.0541715
-0.0582327
-0.0622186
-0.0665938
-0.0708842
-0.0755341
-0.080054
-0.0849335
-0.0896378
-0.0946966
-0.099536
-0.104719
-0.109641
-0.114889
-0.119836
-0.125085
-0.129997
-0.135179
-0.139992
-0.145036
-0.149683
-0.154516
-0.158931
-0.16348
-0.167594
-0.171786
-0.175534
-0.179301
-0.182617
-0.185891
-0.188713
-0.191431
-0.1937
-0.195804
-0.197466
-0.198902
-0.199909
-0.200632
-0.200947
-0.200924
-0.200519
-0.199732
-0.198596
-0.197043
-0.195184
-0.192882
-0.190325
-0.187313
-0.184103
-0.180435
-0.176635
-0.172385
-0.168295
-0.163579
-0.160481
-0.158025
-0.157409
-0.158116
-0.159852
-0.162261
-0.164881
-0.167241
-0.169181
-0.169993
-0.170228
-0.168887
-0.167132
-0.163825
-0.160196
-0.155214
-0.14986
-0.143359
-0.136633
-0.129152
-0.12189
-0.114593
-0.110969
0.062304
0.0621708
0.0623516
0.0595479
0.0538087
0.0468521
0.0379864
0.0292438
0.0202002
0.0117407
0.00375206
-0.00365962
-0.0103874
-0.0165655
-0.0219837
-0.0269083
-0.0310576
-0.0349208
-0.0381889
-0.0414648
-0.0444982
-0.0477938
-0.051236
-0.054975
-0.0590343
-0.0632541
-0.0676272
-0.0721746
-0.0768223
-0.0816274
-0.0865046
-0.0915187
-0.0965751
-0.101745
-0.106925
-0.112192
-0.117437
-0.122737
-0.127984
-0.13325
-0.13843
-0.143593
-0.148634
-0.153621
-0.158451
-0.163189
-0.167736
-0.172152
-0.176343
-0.180368
-0.184133
-0.187699
-0.190971
-0.194013
-0.196729
-0.199185
-0.201288
-0.203103
-0.204537
-0.205662
-0.206385
-0.20678
-0.206757
-0.206395
-0.205608
-0.204478
-0.202925
-0.201033
-0.198732
-0.196103
-0.193092
-0.189772
-0.186106
-0.182158
-0.177909
-0.173628
-0.168914
-0.165555
-0.163081
-0.162109
-0.162767
-0.164019
-0.166361
-0.168365
-0.170653
-0.171887
-0.172635
-0.172138
-0.170746
-0.168297
-0.164953
-0.160717
-0.155711
-0.149895
-0.143384
-0.136397
-0.128918
-0.121598
-0.114306
-0.110699
0.0648819
0.0648626
0.0650585
0.0624038
0.0567261
0.0497297
0.0409429
0.0319444
0.0229731
0.0140806
0.00614878
-0.00181182
-0.00849881
-0.0152839
-0.0206764
-0.0262042
-0.0303416
-0.0347441
-0.0380101
-0.0417265
-0.044762
-0.0483947
-0.0518377
-0.0558426
-0.0598999
-0.0643722
-0.068743
-0.0735681
-0.0782134
-0.0833264
-0.0882011
-0.0935498
-0.0986037
-0.104129
-0.109308
-0.114946
-0.120189
-0.12587
-0.131114
-0.136763
-0.14194
-0.147481
-0.15252
-0.157873
-0.162701
-0.167788
-0.172332
-0.177075
-0.181263
-0.185588
-0.189351
-0.193186
-0.196457
-0.199735
-0.202451
-0.205108
-0.20721
-0.209189
-0.210623
-0.211874
-0.212596
-0.213078
-0.213056
-0.21274
-0.211954
-0.210829
-0.209277
-0.207348
-0.205049
-0.202343
-0.199333
-0.195894
-0.19223
-0.188122
-0.183875
-0.179386
-0.174675
-0.171035
-0.168539
-0.167185
-0.16779
-0.168518
-0.170789
-0.172127
-0.174338
-0.174808
-0.175487
-0.1742
-0.172753
-0.169555
-0.16617
-0.16128
-0.156247
-0.149933
-0.143411
-0.136143
-0.128665
-0.121284
-0.113996
-0.110408
0.0677245
0.0677435
0.0673382
0.0648034
0.0594942
0.0525855
0.0441343
0.0350934
0.0261002
0.0170762
0.00891187
0.000763861
-0.00626976
-0.0132745
-0.0190869
-0.0248453
-0.029433
-0.0340548
-0.0377364
-0.0416457
-0.0450108
-0.0488014
-0.052455
-0.0565819
-0.0607711
-0.0653404
-0.0698781
-0.0748097
-0.0796469
-0.0848782
-0.0899639
-0.0954413
-0.100722
-0.106385
-0.111803
-0.117584
-0.123074
-0.128902
-0.134396
-0.140193
-0.145618
-0.151305
-0.156586
-0.16208
-0.167141
-0.172363
-0.177127
-0.181996
-0.18639
-0.19083
-0.194781
-0.19872
-0.202159
-0.205529
-0.208392
-0.211128
-0.213356
-0.215399
-0.216938
-0.218238
-0.219042
-0.219557
-0.219593
-0.219295
-0.218543
-0.217421
-0.215878
-0.213936
-0.21162
-0.208884
-0.205831
-0.202347
-0.198611
-0.194442
-0.190143
-0.185575
-0.180922
-0.17715
-0.174523
-0.172954
-0.173105
-0.173546
-0.175192
-0.176195
-0.177706
-0.177817
-0.177853
-0.176208
-0.174239
-0.170708
-0.166888
-0.161711
-0.156321
-0.149796
-0.143083
-0.135707
-0.128253
-0.120858
-0.114454
-0.110877
0.0708161
0.0708384
0.0706888
0.0681915
0.0628971
0.0560714
0.0476641
0.0387214
0.0295158
0.0205801
0.0119186
0.0038411
-0.00385379
-0.0108064
-0.0173538
-0.0230788
-0.0284166
-0.0330223
-0.0373972
-0.0413021
-0.0452332
-0.0490237
-0.05306
-0.0571851
-0.0616348
-0.0662014
-0.07103
-0.0759587
-0.0811267
-0.0863549
-0.0918047
-0.0972789
-0.102952
-0.108612
-0.114443
-0.120221
-0.126138
-0.131962
-0.137888
-0.143682
-0.149537
-0.15522
-0.160922
-0.166413
-0.171878
-0.177096
-0.182242
-0.187108
-0.191857
-0.196295
-0.200572
-0.204508
-0.208241
-0.211608
-0.21473
-0.217463
-0.219912
-0.221954
-0.223675
-0.224974
-0.22592
-0.226435
-0.226572
-0.226274
-0.22558
-0.224458
-0.222928
-0.220988
-0.218639
-0.215905
-0.212771
-0.209289
-0.205426
-0.201259
-0.196821
-0.192256
-0.187564
-0.183786
-0.180881
-0.179268
-0.17866
-0.179028
-0.179693
-0.180612
-0.181065
-0.1811
-0.180132
-0.178428
-0.175555
-0.171983
-0.167386
-0.162184
-0.156205
-0.149672
-0.142619
-0.135248
-0.127683
-0.120296
-0.114448
-0.110873
0.0741483
0.0741852
0.0751622
0.0727021
0.0674564
0.0606975
0.0517086
0.0428753
0.0330456
0.0242006
0.0148864
0.00687761
-0.00157429
-0.00847587
-0.0158426
-0.0215395
-0.0276146
-0.0322082
-0.0371555
-0.0410572
-0.0454054
-0.0491952
-0.0535562
-0.0576793
-0.0624467
-0.0670108
-0.0721759
-0.0771021
-0.0826418
-0.0878674
-0.0937271
-0.0991985
-0.105314
-0.11097
-0.117268
-0.123043
-0.129444
-0.135265
-0.141681
-0.147472
-0.153816
-0.159496
-0.165675
-0.171163
-0.177088
-0.182303
-0.187885
-0.192749
-0.197904
-0.202339
-0.206988
-0.210923
-0.214992
-0.218357
-0.221775
-0.224508
-0.227212
-0.229253
-0.231184
-0.232483
-0.233593
-0.234108
-0.234359
-0.234062
-0.233431
-0.23231
-0.23079
-0.22885
-0.226455
-0.223723
-0.220487
-0.217007
-0.212984
-0.208819
-0.204081
-0.199518
-0.19418
-0.190396
-0.186877
-0.185222
-0.184212
-0.184507
-0.184633
-0.18546
-0.185162
-0.185103
-0.183176
-0.181398
-0.177503
-0.173872
-0.168353
-0.163112
-0.156378
-0.149834
-0.142194
-0.134821
-0.126952
-0.119576
-0.11255
-0.108979
0.0778046
0.0780321
0.0790302
0.0768823
0.0717271
0.0650951
0.056228
0.0472661
0.0375426
0.0283215
0.0190965
0.0104945
0.00211272
-0.00554837
-0.012878
-0.0194078
-0.0254777
-0.0308693
-0.0358242
-0.0403922
-0.0447551
-0.0490278
-0.0533949
-0.0578533
-0.0625992
-0.0674694
-0.0726309
-0.0778925
-0.0834284
-0.0890305
-0.0948862
-0.10077
-0.106881
-0.112981
-0.119274
-0.125514
-0.131909
-0.138208
-0.14462
-0.150893
-0.157232
-0.16339
-0.169565
-0.17552
-0.181441
-0.187106
-0.192684
-0.197974
-0.203126
-0.207961
-0.212607
-0.216912
-0.220977
-0.22468
-0.228096
-0.231129
-0.233831
-0.236134
-0.238064
-0.239584
-0.240694
-0.241386
-0.241637
-0.241471
-0.24084
-0.239801
-0.238282
-0.236372
-0.233978
-0.231222
-0.227988
-0.224427
-0.220407
-0.216106
-0.211371
-0.206598
-0.201265
-0.197135
-0.193556
-0.191333
-0.190239
-0.189712
-0.189733
-0.189543
-0.189129
-0.187977
-0.185953
-0.183124
-0.179165
-0.17462
-0.169054
-0.163083
-0.156316
-0.149257
-0.141619
-0.134002
-0.126145
-0.118778
-0.11176
-0.108249
0.0817528
0.0821862
0.0831893
0.0813963
0.0763388
0.0698439
0.0611082
0.0520074
0.0424123
0.032773
0.0236575
0.0144001
0.00610638
-0.00238714
-0.00965101
-0.0170984
-0.0231257
-0.0293998
-0.0343323
-0.0396441
-0.0439977
-0.0488182
-0.0531813
-0.0580216
-0.0627639
-0.0679647
-0.0731223
-0.078746
-0.0842777
-0.0902865
-0.0961377
-0.102468
-0.108574
-0.115151
-0.12144
-0.128181
-0.134572
-0.141386
-0.147794
-0.154587
-0.160921
-0.167595
-0.173766
-0.180225
-0.186141
-0.192292
-0.197866
-0.203617
-0.208765
-0.214032
-0.218675
-0.223379
-0.227441
-0.231507
-0.23492
-0.238279
-0.240978
-0.243565
-0.245494
-0.247253
-0.248361
-0.249246
-0.249496
-0.249472
-0.248841
-0.24789
-0.246372
-0.244494
-0.242102
-0.239319
-0.236088
-0.232441
-0.228423
-0.223974
-0.219243
-0.214242
-0.208913
-0.20439
-0.200783
-0.197911
-0.196751
-0.195296
-0.195227
-0.193912
-0.193407
-0.191053
-0.188952
-0.184973
-0.18096
-0.175408
-0.169809
-0.163031
-0.156249
-0.148633
-0.140999
-0.133117
-0.125274
-0.117915
-0.110907
-0.10746
0.0862671
0.0867339
0.0866489
0.0849629
0.0805702
0.0742461
0.0662722
0.0572675
0.0478531
0.03824
0.0288797
0.0195861
0.0107879
0.00220613
-0.00574702
-0.0133213
-0.0201707
-0.0265899
-0.0323544
-0.0378083
-0.0428507
-0.0477908
-0.0526091
-0.057537
-0.0625443
-0.067805
-0.0732279
-0.0789173
-0.0847452
-0.090828
-0.0970101
-0.103421
-0.109889
-0.116553
-0.123226
-0.130059
-0.136851
-0.143759
-0.150577
-0.157466
-0.164213
-0.170983
-0.177563
-0.184115
-0.190432
-0.196671
-0.202633
-0.208469
-0.213988
-0.219335
-0.224329
-0.229106
-0.233497
-0.23763
-0.241346
-0.244764
-0.24774
-0.250379
-0.252553
-0.254356
-0.255677
-0.256597
-0.257024
-0.257027
-0.256535
-0.255601
-0.25418
-0.252309
-0.249971
-0.247184
-0.24396
-0.240298
-0.236239
-0.231764
-0.227011
-0.22197
-0.21679
-0.212169
-0.208286
-0.205213
-0.203104
-0.201369
-0.200057
-0.198429
-0.196632
-0.193971
-0.190764
-0.18651
-0.181651
-0.17587
-0.16963
-0.162677
-0.155448
-0.147725
-0.139942
-0.132026
-0.124304
-0.116957
-0.111393
-0.107962
0.0907285
0.0911998
0.0931215
0.0914867
0.0871658
0.0809693
0.0725099
0.0636822
0.0538097
0.0443522
0.0343954
0.025232
0.0155859
0.00710878
-0.00190244
-0.00940071
-0.0173381
-0.0237098
-0.0304175
-0.0358458
-0.041601
-0.0465288
-0.0517826
-0.056705
-0.0620101
-0.0672661
-0.0730445
-0.0787289
-0.0849747
-0.091052
-0.0977033
-0.104109
-0.111089
-0.117748
-0.124969
-0.131796
-0.139161
-0.146064
-0.153469
-0.160351
-0.16769
-0.174453
-0.181618
-0.188165
-0.195054
-0.201288
-0.207802
-0.213633
-0.21968
-0.225022
-0.230515
-0.235288
-0.240146
-0.244275
-0.248422
-0.251837
-0.255203
-0.25784
-0.260361
-0.262163
-0.263782
-0.264702
-0.265374
-0.265377
-0.26507
-0.264137
-0.262839
-0.26097
-0.258687
-0.255903
-0.252662
-0.249004
-0.244855
-0.240384
-0.235403
-0.230366
-0.224652
-0.220025
-0.215453
-0.212331
-0.209409
-0.207591
-0.205211
-0.203485
-0.200429
-0.197678
-0.193127
-0.188807
-0.182678
-0.176856
-0.169572
-0.162602
-0.154609
-0.146891
-0.138564
-0.130674
-0.122699
-0.115376
-0.108781
-0.105356
0.0957634
0.0965296
0.0984878
0.0974056
0.0932322
0.08742
0.0791524
0.0704558
0.0607278
0.0511046
0.041261
0.031623
0.0220552
0.0128199
0.00383609
-0.00461943
-0.0125699
-0.019947
-0.0266834
-0.0329919
-0.0387798
-0.0443287
-0.0495929
-0.0548845
-0.0601667
-0.0657131
-0.0715063
-0.0775111
-0.0837751
-0.090224
-0.096896
-0.10372
-0.110723
-0.117839
-0.125085
-0.132401
-0.139793
-0.147208
-0.15464
-0.162049
-0.169415
-0.176711
-0.183904
-0.190984
-0.1979
-0.204661
-0.211201
-0.217547
-0.223619
-0.229461
-0.234978
-0.240232
-0.245112
-0.249699
-0.253866
-0.257712
-0.261097
-0.264132
-0.266671
-0.268834
-0.270468
-0.271706
-0.272392
-0.272666
-0.27237
-0.271655
-0.270365
-0.268657
-0.266378
-0.263692
-0.260453
-0.256828
-0.252678
-0.248173
-0.243182
-0.238014
-0.232294
-0.227308
-0.222645
-0.218782
-0.215734
-0.212796
-0.210256
-0.207193
-0.20396
-0.199855
-0.195144
-0.189622
-0.183376
-0.176592
-0.169224
-0.161556
-0.153505
-0.145358
-0.13702
-0.128975
-0.121026
-0.113816
-0.107211
-0.103898
0.101423
0.102399
0.103656
0.103014
0.0993188
0.0938987
0.0862119
0.0776844
0.0682817
0.0585765
0.0488553
0.0388847
0.0292987
0.0195014
0.0103782
0.00119346
-0.00701099
-0.015167
-0.0222167
-0.0292206
-0.0352865
-0.041342
-0.0467925
-0.052395
-0.0577654
-0.0635355
-0.0694141
-0.0756658
-0.0820198
-0.0887552
-0.095533
-0.102679
-0.109802
-0.117272
-0.12465
-0.132344
-0.139878
-0.147689
-0.155272
-0.163088
-0.170611
-0.17832
-0.185675
-0.193166
-0.200247
-0.207415
-0.214122
-0.220867
-0.227104
-0.233334
-0.239015
-0.244641
-0.249683
-0.254623
-0.258949
-0.263127
-0.266663
-0.270006
-0.272688
-0.27513
-0.276899
-0.278384
-0.279191