/*--------------------------------*- C++ -*----------------------------------*\
| =========                 |                                                 |
| \\      /  F ield         | OpenFOAM: The Open Source CFD Toolbox           |
|  \\    /   O peration     | Version:  v2106                                 |
|   \\  /    A nd           | Website:  www.openfoam.com                      |
|    \\/     M anipulation  |                                                 |
\*---------------------------------------------------------------------------*/
FoamFile
{
    version     2.0;
    format      ascii;
    arch        "LSB;label=32;scalar=64";
    class       volScalarField;
    location    "0";
    object      expGpCoeffs50;
}
// * * * * * * * * * * * * * * * * * * * * * * * * * * * * * * * * * * * * * //

dimensions      [0 0 0 0 0 0 0];

internalField   nonuniform List<scalar> 
8000
(
0.000556442
0.000566998
0.000563494
0.00053108
0.000448135
0.000325797
0.000207573
0.000101957
2.99253e-05
-1.47483e-05
-0.000109773
-0.000263232
-0.000537162
-0.000931546
-0.00138388
-0.00188679
-0.00231286
-0.00266019
-0.00287296
-0.0029508
-0.00293362
-0.00282171
-0.00266465
-0.00246358
-0.00223773
-0.00198632
-0.00172332
-0.00145039
-0.00118698
-0.000934816
-0.000709891
-0.000513297
-0.000352052
-0.00022635
-0.000133223
-7.20474e-05
-3.25405e-05
-1.36334e-05
-2.85856e-06
7.98227e-07
6.69469e-06
1.53857e-05
2.99583e-05
5.03715e-05
7.36433e-05
9.9303e-05
0.000121444
0.000139533
0.000148997
0.000149595
0.000141135
0.000123827
0.00010203
7.62747e-05
5.26119e-05
3.15392e-05
1.63712e-05
7.17805e-06
9.22491e-07
-2.9704e-06
-1.45838e-05
-3.50332e-05
-7.84593e-05
-0.00014611
-0.000250536
-0.000392569
-0.000577244
-0.000804502
-0.00106823
-0.00136734
-0.00168486
-0.00201885
-0.00234563
-0.00266296
-0.00294723
-0.00319657
-0.00339174
-0.00353453
-0.00359638
-0.00357764
-0.00343156
-0.00315953
-0.0027596
-0.00223374
-0.00168891
-0.00112883
-0.000680006
-0.000347825
-0.000138525
-4.68022e-05
2.05901e-05
7.13009e-05
0.000152044
0.000264288
0.000365301
0.000444486
0.000480515
0.000471393
0.000450638
0.00042994
0.000555592
0.000566145
0.00056778
0.000535425
0.000451135
0.000328849
0.000203481
9.768e-05
2.93618e-05
-1.53475e-05
-0.000100378
-0.000253625
-0.000526958
-0.000921193
-0.00138478
-0.00188783
-0.00232383
-0.00267141
-0.00288333
-0.00296131
-0.00293846
-0.0028266
-0.00266699
-0.00246595
-0.00223942
-0.00198804
-0.00172333
-0.00145044
-0.00118526
-0.000933129
-0.000707099
-0.00051053
-0.000349105
-0.000223419
-0.000130953
-6.97854e-05
-3.13954e-05
-1.24908e-05
-2.77194e-06
8.84373e-07
6.20276e-06
1.48926e-05
2.95065e-05
4.99171e-05
7.36749e-05
9.93312e-05
0.000122026
0.000140113
0.000149828
0.000150425
0.000141748
0.000124443
0.000102095
7.63435e-05
5.21657e-05
3.10957e-05
1.58571e-05
6.66517e-06
1.00814e-06
-2.88425e-06
-1.33354e-05
-3.37822e-05
-7.59056e-05
-0.000143547
-0.000247103
-0.000389117
-0.000573826
-0.000801055
-0.00106589
-0.00136496
-0.00168443
-0.00201838
-0.00234745
-0.00266473
-0.00295094
-0.00320025
-0.00339666
-0.00353943
-0.00360454
-0.00358574
-0.00344385
-0.00317166
-0.00276761
-0.00224154
-0.00168317
-0.00112308
-0.000666708
-0.000334766
-0.000131969
-4.03953e-05
1.74743e-05
6.82995e-05
0.00015024
0.00026259
0.000369924
0.000449
0.000483125
0.000473969
0.000448967
0.000428274
0.000554674
0.000565225
0.00057241
0.000540118
0.000454374
0.000332145
0.000199061
9.3062e-05
2.87533e-05
-1.59945e-05
-9.02339e-05
-0.000243251
-0.000515938
-0.000910014
-0.00138576
-0.00188896
-0.00233567
-0.00268353
-0.00289452
-0.00297265
-0.00294369
-0.00283188
-0.00266952
-0.00246851
-0.00224124
-0.0019899
-0.00172334
-0.00145049
-0.00118341
-0.000931307
-0.000704084
-0.000507542
-0.000345922
-0.000220253
-0.000128502
-6.73427e-05
-3.01589e-05
-1.12569e-05
-2.67842e-06
9.77398e-07
5.67155e-06
1.43602e-05
2.90186e-05
4.94263e-05
7.3709e-05
9.93618e-05
0.000122655
0.000140739
0.000150724
0.000151322
0.000142411
0.000125107
0.000102166
7.64177e-05
5.16839e-05
3.06168e-05
1.5302e-05
6.11134e-06
1.10063e-06
-2.79122e-06
-1.19874e-05
-3.24313e-05
-7.31481e-05
-0.00014078
-0.000243396
-0.00038539
-0.000570135
-0.000797332
-0.00106336
-0.00136239
-0.00168396
-0.00201787
-0.00234941
-0.00266665
-0.00295494
-0.00320421
-0.00340198
-0.00354472
-0.00361335
-0.00359449
-0.00345712
-0.00318475
-0.00277627
-0.00224996
-0.00167698
-0.00111689
-0.000652347
-0.000320665
-0.00012489
-3.34768e-05
1.41097e-05
6.50585e-05
0.000148291
0.000260756
0.000374916
0.000453875
0.000485943
0.00047675
0.000447163
0.000426474
0.000553683
0.000564231
0.000577408
0.000545184
0.000457872
0.000335705
0.000194289
8.80753e-05
2.80961e-05
-1.66932e-05
-7.92795e-05
-0.00023205
-0.000504039
-0.000897943
-0.0013868
-0.00189018
-0.00234845
-0.00269661
-0.00290662
-0.00298491
-0.00294934
-0.00283757
-0.00267226
-0.00247128
-0.00224321
-0.00199191
-0.00172336
-0.00145055
-0.0011814
-0.000929339
-0.000700828
-0.000504316
-0.000342485
-0.000216835
-0.000125856
-6.4705e-05
-2.88237e-05
-9.92451e-06
-2.57742e-06
1.07785e-06
5.09793e-06
1.37853e-05
2.84917e-05
4.88964e-05
7.37457e-05
9.93947e-05
0.000123334
0.000141415
0.000151692
0.00015229
0.000143126
0.000125825
0.000102243
7.64979e-05
5.11636e-05
3.00996e-05
1.47026e-05
5.51329e-06
1.20051e-06
-2.69076e-06
-1.05317e-05
-3.09726e-05
-7.01704e-05
-0.000137793
-0.000239392
-0.000381366
-0.000566149
-0.000793313
-0.00106062
-0.00135961
-0.00168346
-0.00201732
-0.00235153
-0.00266872
-0.00295926
-0.0032085
-0.00340772
-0.00355044
-0.00362286
-0.00360394
-0.00347146
-0.0031989
-0.00278561
-0.00225904
-0.00167028
-0.00111019
-0.00063684
-0.000305438
-0.000117245
-2.60059e-05
1.04765e-05
6.15588e-05
0.000146187
0.000258776
0.000380307
0.000459139
0.000488987
0.000479753
0.000445214
0.000424531
0.000552612
0.000563158
0.000582806
0.000550415
0.000461649
0.000339548
0.000189136
8.26904e-05
2.73866e-05
-1.74476e-05
-6.74506e-05
-0.000219953
-0.00049119
-0.000884907
-0.00138794
-0.00189149
-0.00236225
-0.00271074
-0.00291967
-0.00299814
-0.00295544
-0.00284373
-0.00267521
-0.00247427
-0.00224534
-0.00199408
-0.00172337
-0.0014506
-0.00117924
-0.000927214
-0.000697313
-0.000500832
-0.000338774
-0.000213144
-0.000122997
-6.18568e-05
-2.73819e-05
-8.48574e-06
-2.46836e-06
1.18632e-06
4.47851e-06
1.31645e-05
2.79228e-05
4.83242e-05
7.37855e-05
9.94303e-05
0.000124066
0.000142145
0.000152737
0.000153335
0.000143898
0.0001266
0.000102325
7.65845e-05
5.06018e-05
2.95412e-05
1.40553e-05
4.86749e-06
1.30836e-06
-2.58229e-06
-8.95972e-06
-2.93973e-05
-6.69549e-05
-0.000134566
-0.000235069
-0.00037702
-0.000561845
-0.000788972
-0.00105767
-0.00135661
-0.00168292
-0.00201673
-0.00235381
-0.00267096
-0.00296392
-0.00321312
-0.00341392
-0.00355661
-0.00363314
-0.00361414
-0.00348694
-0.00321417
-0.00279571
-0.00226886
-0.00166306
-0.00110296
-0.000620096
-0.000288995
-0.00010899
-1.79386e-05
6.55323e-06
5.77796e-05
0.000143915
0.000256637
0.000386129
0.000464823
0.000491805
0.000482996
0.00044311
0.000422432
0.000551447
0.000562417
0.000583839
0.000554577
0.000465785
0.000346245
0.000185131
8.00027e-05
2.6723e-05
-1.80863e-05
-5.50873e-05
-0.000207327
-0.000477629
-0.00086987
-0.00138872
-0.00189214
-0.00237716
-0.002726
-0.00293377
-0.00301243
-0.00296202
-0.00285038
-0.0026784
-0.00247749
-0.00224708
-0.00199584
-0.00172305
-0.0014503
-0.00117678
-0.000924812
-0.00069357
-0.000497186
-0.000334911
-0.000209403
-0.000120063
-5.90332e-05
-2.5919e-05
-7.07974e-06
-2.34821e-06
1.33444e-06
3.92257e-06
1.27265e-05
2.75344e-05
4.81139e-05
7.41662e-05
9.99956e-05
0.000125305
0.00014351
0.000154409
0.000155029
0.000145328
0.000127943
0.000102998
7.70854e-05
5.04766e-05
2.922e-05
1.36487e-05
4.31174e-06
1.48147e-06
-2.45642e-06
-7.41845e-06
-2.77753e-05
-6.37461e-05
-0.000131156
-0.000230596
-0.000372259
-0.000557121
-0.000783922
-0.00105396
-0.00135258
-0.00168127
-0.0020148
-0.00235467
-0.00267161
-0.00296692
-0.00321595
-0.00342062
-0.00356327
-0.00364423
-0.00362515
-0.00350365
-0.00323067
-0.00280661
-0.00227946
-0.00165463
-0.00109495
-0.000601964
-0.000271983
-0.000100439
-9.46789e-06
2.7132e-06
5.38659e-05
0.000143812
0.000255207
0.000391621
0.000468752
0.000491963
0.000481064
0.000440571
0.00041971
0.000550169
0.000562462
0.00058388
0.000559072
0.00047036
0.000354582
0.000193644
8.57562e-05
3.26329e-05
-1.57649e-05
-5.27167e-05
-0.000198329
-0.000468512
-0.000846224
-0.0013647
-0.00185986
-0.00234634
-0.00270345
-0.0029103
-0.00300303
-0.00295021
-0.00284702
-0.00267347
-0.00247492
-0.00224382
-0.00199236
-0.00171962
-0.00144652
-0.00117306
-0.000921222
-0.000690023
-0.000494321
-0.000332077
-0.000207626
-0.000118303
-5.83165e-05
-2.52084e-05
-6.92708e-06
-2.19645e-06
1.78095e-06
4.3686e-06
1.43996e-05
2.92047e-05
5.16576e-05
7.77049e-05
0.000105474
0.000130779
0.000150326
0.000161222
0.000162096
0.000152397
0.000134067
0.000109127
8.13951e-05
5.47913e-05
3.14825e-05
1.59142e-05
5.02138e-06
2.19165e-06
-2.23962e-06
-7.20072e-06
-2.67529e-05
-6.27169e-05
-0.000128152
-0.000227574
-0.000366491
-0.000551319
-0.000775116
-0.0010451
-0.00134093
-0.00166955
-0.00200084
-0.00234064
-0.00265603
-0.00295128
-0.00319899
-0.00340626
-0.0035454
-0.00362982
-0.0036008
-0.00348216
-0.00319668
-0.00277311
-0.00224517
-0.00161896
-0.00107469
-0.000582001
-0.000266549
-9.50712e-05
-6.76383e-06
5.34555e-06
6.04209e-05
0.000150213
0.000260896
0.000397209
0.000468921
0.000492133
0.000477762
0.000437293
0.0004158
0.000548788
0.00056251
0.000583925
0.000563925
0.000475301
0.000363585
0.000202837
9.19692e-05
3.90147e-05
-1.32582e-05
-5.01569e-05
-0.000188613
-0.000458667
-0.000820691
-0.00133875
-0.00182501
-0.00231088
-0.00267413
-0.0028805
-0.0029869
-0.00293392
-0.00284052
-0.00266699
-0.00247135
-0.00224028
-0.0019886
-0.00171592
-0.00144244
-0.00116903
-0.000917345
-0.000686193
-0.000491228
-0.000329017
-0.000205706
-0.000116401
-5.75425e-05
-2.44412e-05
-6.76224e-06
-2.03257e-06
2.26311e-06
4.85023e-06
1.62063e-05
3.10084e-05
5.54842e-05
8.15263e-05
0.000111391
0.00013669
0.000157685
0.00016858
0.000169728
0.000160031
0.000140681
0.000115746
8.6049e-05
5.94506e-05
3.39257e-05
1.83606e-05
5.78769e-06
2.95852e-06
-2.00551e-06
-6.9656e-06
-2.56488e-05
-6.16055e-05
-0.000124908
-0.00022431
-0.000360263
-0.000545053
-0.000765607
-0.00103554
-0.00132835
-0.00165691
-0.00198575
-0.00232549
-0.0026392
-0.0029344
-0.00318067
-0.0033879
-0.0035226
-0.0036071
-0.00356771
-0.00344943
-0.00315403
-0.00273113
-0.00220601
-0.00158045
-0.00105281
-0.000560444
-0.000260681
-8.92748e-05
-3.84387e-06
8.18807e-06
6.74992e-05
0.000157125
0.000267039
0.000403242
0.000469104
0.000492316
0.000474196
0.000433753
0.000411578
0.000547298
0.000562562
0.000583974
0.000569166
0.000480635
0.000373307
0.000212764
9.86781e-05
4.59061e-05
-1.05514e-05
-4.73927e-05
-0.000178121
-0.000448037
-0.000793118
-0.00131074
-0.00178737
-0.00227259
-0.00264246
-0.00284832
-0.00296948
-0.00291632
-0.00283351
-0.00265999
-0.00246748
-0.00223647
-0.00198454
-0.00171192
-0.00143803
-0.00116469
-0.000913158
-0.000682057
-0.000487888
-0.000325712
-0.000203634
-0.000114348
-5.67067e-05
-2.36127e-05
-6.58424e-06
-1.8556e-06
2.78376e-06
5.37032e-06
1.81573e-05
3.29561e-05
5.96163e-05
8.56527e-05
0.000117779
0.000143073
0.000165633
0.000176525
0.000177969
0.000168274
0.000147822
0.000122893
9.10744e-05
6.44818e-05
3.6564e-05
2.10023e-05
6.61517e-06
3.78663e-06
-1.75271e-06
-6.71172e-06
-2.44566e-05
-6.04054e-05
-0.000121405
-0.000220785
-0.000353537
-0.000538287
-0.000755338
-0.00102521
-0.00131477
-0.00164325
-0.00196947
-0.00230913
-0.00262104
-0.00291617
-0.00316089
-0.00336808
-0.00349798
-0.00358256
-0.00353198
-0.00341408
-0.00310798
-0.00268579
-0.00216371
-0.00153885
-0.00102919
-0.000537167
-0.000254345
-8.30156e-05
-6.90786e-07
1.12575e-05
7.51426e-05
0.000164588
0.000273673
0.000409757
0.000469302
0.000492515
0.000470346
0.00042993
0.000407018
0.000545688
0.000562618
0.000584026
0.000574826
0.000486396
0.000383804
0.000223483
0.000105923
5.33476e-05
-7.62837e-06
-4.44078e-05
-0.000166791
-0.000436558
-0.000763345
-0.00128048
-0.00174673
-0.00223123
-0.00260827
-0.00281358
-0.00295068
-0.00289732
-0.00282594
-0.00265242
-0.00246331
-0.00223236
-0.00198016
-0.0017076
-0.00143328
-0.00116
-0.000908638
-0.000677591
-0.000484281
-0.000322144
-0.000201396
-0.000112131
-5.58042e-05
-2.2718e-05
-6.39203e-06
-1.66451e-06
3.34599e-06
5.93194e-06
2.0264e-05
3.50594e-05
6.40784e-05
9.01086e-05
0.000124678
0.000149966
0.000174215
0.000185104
0.000186868
0.000177175
0.000155534
0.000130611
9.6501e-05
6.99147e-05
3.9413e-05
2.38549e-05
7.50873e-06
4.68085e-06
-1.47973e-06
-6.43756e-06
-2.31692e-05
-5.91095e-05
-0.000117623
-0.00021698
-0.000346275
-0.000530981
-0.00074425
-0.00101406
-0.0013001
-0.0016285
-0.00195189
-0.00229147
-0.00260142
-0.00289648
-0.00313953
-0.00334667
-0.00347139
-0.00355606
-0.00349339
-0.00337592
-0.00305825
-0.00263683
-0.00211804
-0.00149394
-0.00100367
-0.000512031
-0.000247502
-7.62567e-05
2.71405e-06
1.45721e-05
8.33964e-05
0.000172647
0.000280836
0.000416792
0.000469515
0.000492729
0.000466188
0.000425802
0.000402095
0.00054395
0.000562679
0.000584083
0.000580937
0.000492616
0.000395141
0.000235059
0.000113746
6.13833e-05
-4.47202e-06
-4.11845e-05
-0.000154557
-0.000424162
-0.000731194
-0.00124781
-0.00170285
-0.00218658
-0.00257134
-0.00277606
-0.00293037
-0.0028768
-0.00281777
-0.00264426
-0.00245881
-0.00222791
-0.00197542
-0.00170294
-0.00142814
-0.00115493
-0.000903756
-0.000672769
-0.000480386
-0.00031829
-0.000198979
-0.000109737
-5.48297e-05
-2.17519e-05
-6.18447e-06
-1.45816e-06
3.9531e-06
6.53839e-06
2.25389e-05
3.73305e-05
6.88967e-05
9.49202e-05
0.000132127
0.000157409
0.000183482
0.000194368
0.000196477
0.000186787
0.000163862
0.000138945
0.000102361
7.57814e-05
4.24893e-05
2.69352e-05
8.47362e-06
5.64647e-06
-1.18495e-06
-6.14151e-06
-2.1779e-05
-5.77102e-05
-0.000113538
-0.00021287
-0.000338433
-0.000523091
-0.000732276
-0.00100201
-0.00128426
-0.00161258
-0.0019329
-0.00227239
-0.00258024
-0.00287522
-0.00311646
-0.00332355
-0.00344268
-0.00352745
-0.00345173
-0.00333471
-0.00300455
-0.00258397
-0.00206873
-0.00144544
-0.000976123
-0.000484888
-0.000240114
-6.89581e-05
6.39073e-06
1.81513e-05
9.23091e-05
0.00018135
0.000288571
0.000424389
0.000469745
0.00049296
0.000461698
0.000421344
0.000396778
0.000542073
0.000562745
0.000584144
0.000587536
0.000499333
0.000407382
0.000247558
0.000122194
7.00606e-05
-1.06365e-06
-3.7704e-05
-0.000141346
-0.000410776
-0.000696476
-0.00121254
-0.00165546
-0.00213836
-0.00253147
-0.00273554
-0.00290844
-0.00285465
-0.00280894
-0.00263544
-0.00245394
-0.00222311
-0.00197031
-0.0016979
-0.0014226
-0.00114946
-0.000898485
-0.000667561
-0.00047618
-0.000314129
-0.000196369
-0.000107152
-5.37773e-05
-2.07087e-05
-5.96034e-06
-1.23533e-06
4.60869e-06
7.19326e-06
2.49955e-05
3.9783e-05
7.40997e-05
0.000100116
0.000140171
0.000165446
0.000193489
0.000204372
0.000206854
0.000197166
0.000172854
0.000147944
0.000108689
8.21165e-05
4.58113e-05
3.02615e-05
9.51555e-06
6.68918e-06
-8.66635e-07
-5.82183e-06
-2.02778e-05
-5.61991e-05
-0.000109128
-0.000208432
-0.000329964
-0.000514572
-0.000719347
-0.00098901
-0.00126715
-0.00159539
-0.00191239
-0.00225179
-0.00255736
-0.00285227
-0.00309156
-0.00329859
-0.00341168
-0.00349656
-0.00340674
-0.00329021
-0.00294656
-0.00252688
-0.00201548
-0.00139307
-0.000946374
-0.000455578
-0.000232135
-6.10768e-05
1.0361e-05
2.20162e-05
0.000101933
0.000190748
0.000296924
0.000432593
0.000469993
0.000493209
0.000456849
0.000416531
0.000391037
0.000541064
0.000562791
0.000581529
0.000587169
0.000510974
0.000420863
0.000269598
0.000139963
8.10259e-05
5.99677e-06
-3.66334e-05
-0.000133
-0.000391213
-0.000661888
-0.00115781
-0.00159124
-0.00207041
-0.00246645
-0.002683
-0.00286807
-0.00282712
-0.00279198
-0.00262343
-0.00244526
-0.00221452
-0.00196154
-0.00169028
-0.00141466
-0.00114292
-0.000892113
-0.000662617
-0.000471951
-0.000311067
-0.000194395
-0.000105835
-5.35293e-05
-2.04458e-05
-6.26694e-06
-8.13262e-07
5.33018e-06
9.25863e-06
2.83077e-05
4.48163e-05
8.10365e-05
0.000108806
0.000150831
0.000177501
0.000206907
0.000218484
0.000221225
0.000211328
0.000186056
0.000160041
0.000118938
9.06034e-05
5.22138e-05
3.46793e-05
1.23516e-05
7.86564e-06
-1.91533e-07
-5.93658e-06
-1.95716e-05
-5.4994e-05
-0.000105907
-0.00020324
-0.000321965
-0.000503249
-0.000704945
-0.000970352
-0.00124562
-0.0015693
-0.00188398
-0.00221926
-0.00252322
-0.00281483
-0.00305274
-0.00326136
-0.00336932
-0.00344892
-0.00334909
-0.00321975
-0.00286988
-0.00244373
-0.00193949
-0.00133023
-0.000900733
-0.000431127
-0.000223024
-5.60672e-05
1.23572e-05
3.17362e-05
0.000115995
0.000205835
0.000312442
0.000436366
0.000469137
0.000484958
0.000446268
0.000410202
0.000384194
0.000541094
0.000562814
0.000578553
0.000584153
0.000525463
0.000435708
0.000304101
0.000175478
9.62882e-05
2.1658e-05
-4.07922e-05
-0.000137355
-0.000360719
-0.000630809
-0.00105948
-0.00149089
-0.00194092
-0.00233462
-0.00258485
-0.00276861
-0.00277909
-0.0027436
-0.00260157
-0.00242343
-0.00219866
-0.00194576
-0.00167784
-0.00140231
-0.00113465
-0.000883916
-0.000658592
-0.000467988
-0.000310532
-0.000193898
-0.000107272
-5.49827e-05
-2.18354e-05
-7.6611e-06
-5.9084e-09
6.13556e-06
1.41197e-05
3.31626e-05
5.48732e-05
9.10816e-05
0.000124156
0.000166168
0.000197063
0.000226459
0.000240136
0.000242877
0.000232342
0.000207078
0.000177715
0.000136625
0.000102958
6.45811e-05
4.10498e-05
1.87294e-05
9.23392e-06
1.17934e-06
-6.95147e-06
-2.05821e-05
-5.45194e-05
-0.000105416
-0.00019686
-0.000315547
-0.00048691
-0.000688541
-0.00094126
-0.00121644
-0.00152658
-0.00184116
-0.00216418
-0.00246804
-0.00274988
-0.00298772
-0.00318385
-0.00329187
-0.00333982
-0.0032408
-0.00306873
-0.00272085
-0.00229358
-0.001792
-0.00124742
-0.00081956
-0.000420259
-0.000212278
-5.85638e-05
9.98399e-06
5.54202e-05
0.000139047
0.000231452
0.000337344
0.000434885
0.00046772
0.000473069
0.00043454
0.000402087
0.000376096
0.000540529
0.000562243
0.00058145
0.000586965
0.000545044
0.000455588
0.000341359
0.000213827
0.000112769
3.85695e-05
-4.52832e-05
-0.000142058
-0.000327791
-0.000597249
-0.000953308
-0.00138251
-0.0018011
-0.00219227
-0.00247886
-0.0026612
-0.00272722
-0.00269137
-0.00257797
-0.00239986
-0.00218153
-0.00192872
-0.00166441
-0.00138897
-0.00112571
-0.000875064
-0.000654247
-0.000463708
-0.000309955
-0.000193361
-0.000108823
-5.65521e-05
-2.33359e-05
-9.16657e-06
8.65904e-07
7.00523e-06
1.93689e-05
3.84052e-05
6.57329e-05
0.000101929
0.000140732
0.000182729
0.000218186
0.000247571
0.000263518
0.000266257
0.000255034
0.000229779
0.0001968
0.000155724
0.0001163
7.79358e-05
4.79291e-05
2.56163e-05
1.07114e-05
2.65966e-06
-8.04739e-06
-2.16732e-05
-5.4007e-05
-0.000104886
-0.00018997
-0.000308616
-0.000469267
-0.000670827
-0.000909845
-0.00118493
-0.00148045
-0.00179492
-0.0021047
-0.00240846
-0.00267975
-0.0029175
-0.00310016
-0.00320824
-0.00322202
-0.00312386
-0.00290565
-0.00255993
-0.00213144
-0.00163273
-0.00115801
-0.000731906
-0.000408523
-0.000200675
-6.12596e-05
7.42135e-06
8.09952e-05
0.00016394
0.000259114
0.000364233
0.000437151
0.00047014
0.000462391
0.000424049
0.00039261
0.000366637
0.000530307
0.000552002
0.000595703
0.000601409
0.000588743
0.000500475
0.000373437
0.000246827
0.000116093
4.18901e-05
-2.49393e-05
-0.000121224
-0.000240444
-0.000507875
-0.000818638
-0.00124498
-0.00168268
-0.00207181
-0.00241398
-0.00259557
-0.00270667
-0.00267074
-0.00257294
-0.0023949
-0.0021738
-0.00192108
-0.0016493
-0.00137396
-0.00110546
-0.000854915
-0.000633057
-0.00044259
-0.000292516
-0.000175966
-9.83414e-05
-4.60899e-05
-1.99539e-05
-5.78982e-06
4.21313e-07
6.55834e-06
2.06206e-05
3.96497e-05
7.41645e-05
0.000110347
0.000159343
0.000201324
0.000246005
0.00027538
0.000295807
0.000298545
0.000285157
0.000259911
0.000218961
0.000177901
0.000127967
8.96176e-05
5.08885e-05
2.85842e-05
1.03613e-05
2.31257e-06
-4.77396e-06
-1.83947e-05
-4.11308e-05
-9.19905e-05
-0.00016432
-0.000282921
-0.00043105
-0.000632534
-0.000861916
-0.0011369
-0.00142682
-0.00174117
-0.00204901
-0.00235265
-0.00262508
-0.00286274
-0.00304309
-0.00315121
-0.0031429
-0.00304527
-0.00277855
-0.00243439
-0.00196724
-0.00147139
-0.00101581
-0.000592713
-0.000342386
-0.000136034
-5.38164e-05
1.47209e-05
9.26744e-05
0.000175383
0.000296357
0.000400417
0.000463078
0.000495366
0.000454921
0.000416682
0.000370857
0.000344917
0.000519177
0.000540895
0.000604892
0.000612641
0.000634753
0.00054533
0.000408017
0.000282384
0.000118358
4.41315e-05
-1.05428e-06
-9.67762e-05
-0.000142888
-0.000408062
-0.000671204
-0.00109444
-0.00156005
-0.00194701
-0.0023542
-0.00253499
-0.00269277
-0.00265675
-0.00257134
-0.00239337
-0.00216602
-0.00191341
-0.00163295
-0.00135773
-0.00108303
-0.000832587
-0.000609288
-0.000418899
-0.000272782
-0.000156279
-8.63694e-05
-3.4139e-05
-1.60329e-05
-1.87464e-06
-1.33261e-07
6.00127e-06
2.17348e-05
4.07562e-05
8.30923e-05
0.00011926
0.000179478
0.000221442
0.000276314
0.000305677
0.000331053
0.00033379
0.000317987
0.000292751
0.000242975
0.000201931
0.000140419
0.000102085
5.38441e-05
3.15488e-05
9.87869e-06
1.83321e-06
-9.99668e-07
-1.46149e-05
-2.65644e-05
-7.74034e-05
-0.000135644
-0.000254197
-0.000388751
-0.000590154
-0.000809407
-0.00108428
-0.00136869
-0.00168292
-0.00198933
-0.00229285
-0.00256717
-0.00280474
-0.0029877
-0.00309584
-0.00306862
-0.00297155
-0.00265132
-0.00230885
-0.00179165
-0.00129889
-0.000857746
-0.000437928
-0.000267672
-6.30033e-05
-4.5e-05
2.33687e-05
0.000103853
0.000186326
0.000336641
0.000439542
0.000488295
0.000521577
0.000445818
0.000406149
0.000347447
0.000321519
0.000501252
0.000526532
0.000590429
0.000615732
0.000637943
0.000574429
0.000438395
0.000316899
0.000150262
6.19809e-05
1.93646e-05
-7.03676e-05
-0.000108771
-0.000330378
-0.000585402
-0.000960669
-0.0014271
-0.0018033
-0.00221908
-0.00242492
-0.00258957
-0.00258201
-0.00249588
-0.00233369
-0.00210019
-0.00185895
-0.00157794
-0.0013146
-0.00103954
-0.00080147
-0.000578149
-0.000399266
-0.000253516
-0.000146294
-7.70131e-05
-3.06461e-05
-1.31714e-05
-6.53273e-07
7.40018e-07
9.60949e-06
2.54663e-05
5.08827e-05
9.38089e-05
0.000138423
0.000199489
0.000249721
0.000305363
0.000340507
0.000366257
0.000370574
0.000354589
0.000326169
0.000275728
0.000227564
0.000165177
0.000117824
6.88637e-05
3.83786e-05
1.64498e-05
3.78014e-06
1.27924e-06
-1.12733e-05
-2.23795e-05
-6.53976e-05
-0.000122521
-0.000226648
-0.000360093
-0.000541791
-0.000760168
-0.0010123
-0.00129617
-0.00158743
-0.00189361
-0.00217681
-0.00245117
-0.00267233
-0.00286199
-0.00295419
-0.00292693
-0.00280984
-0.00248178
-0.00213739
-0.00161436
-0.00116176
-0.000725902
-0.000367199
-0.000208036
-3.81818e-05
-2.67196e-05
4.48399e-05
0.000125189
0.000214776
0.000366383
0.000454303
0.000500675
0.000509376
0.000433841
0.000384646
0.000326083
0.000299827
0.000481896
0.000511023
0.000574812
0.00061907
0.000641387
0.000605851
0.00047064
0.000354147
0.000188459
8.28516e-05
4.07899e-05
-4.18497e-05
-7.95409e-05
-0.000248717
-0.000501994
-0.000819697
-0.00128345
-0.00164639
-0.00205969
-0.00229513
-0.00245839
-0.00248591
-0.00239942
-0.00225768
-0.00202428
-0.00179628
-0.0015154
-0.00126589
-0.000990956
-0.00076728
-0.000544066
-0.000378565
-0.000232884
-0.000136457
-6.72089e-05
-2.76628e-05
-1.01964e-05
4.13731e-07
1.80636e-06
1.38585e-05
2.97078e-05
6.25654e-05
0.000105471
0.000159915
0.000220952
0.000280807
0.000336423
0.000378295
0.000404033
0.000410188
0.00039421
0.000362084
0.000311667
0.000255216
0.000192859
0.000135011
8.60735e-05
4.60577e-05
2.41393e-05
6.08917e-06
3.58945e-06
-7.72682e-06
-1.88278e-05
-5.27471e-05
-0.000109843
-0.00019719
-0.000330572
-0.00048935
-0.000707623
-0.000933309
-0.00121705
-0.00148158
-0.00178762
-0.0020472
-0.00232142
-0.0025235
-0.00271308
-0.00278461
-0.00275805
-0.00261684
-0.00229084
-0.00194538
-0.00142532
-0.00102146
-0.000588233
-0.000302964
-0.000145183
-1.71387e-05
-6.20761e-06
6.94343e-05
0.000149188
0.000247611
0.000398417
0.000468043
0.000514043
0.000496201
0.000420908
0.000361426
0.000303014
0.000276403
0.000460995
0.000494275
0.000557948
0.000622674
0.000645107
0.000639782
0.00050546
0.000394369
0.000229705
0.000105389
6.39257e-05
-1.10549e-05
-4.79773e-05
-0.000160537
-0.000411926
-0.000667469
-0.00112833
-0.00147694
-0.00188756
-0.00215499
-0.00231674
-0.00238213
-0.00229526
-0.0021756
-0.00194231
-0.00172861
-0.00144787
-0.00121328
-0.000938494
-0.000730361
-0.000507261
-0.000356211
-0.000210604
-0.000125835
-5.66221e-05
-2.44413e-05
-6.98391e-06
1.56592e-06
2.95784e-06
1.84467e-05
3.42879e-05
7.51808e-05
0.000118065
0.000183124
0.000244129
0.000314375
0.000369963
0.000419101
0.000444825
0.000452964
0.000436995
0.000400867
0.000350475
0.000285077
0.000222751
0.000153569
0.000104657
5.43499e-05
3.24427e-05
8.58255e-06
6.08411e-06
-3.89722e-06
-1.49925e-05
-3.90865e-05
-9.61532e-05
-0.00016538
-0.000298694
-0.000432721
-0.000650882
-0.000848011
-0.00113161
-0.00136729
-0.00167317
-0.00190723
-0.00218132
-0.0023628
-0.00255228
-0.00260148
-0.00257568
-0.00240842
-0.00208465
-0.00173805
-0.00122119
-0.000869969
-0.000439573
-0.000233601
-7.73112e-05
5.5845e-06
1.59421e-05
9.59924e-05
0.000175102
0.000283067
0.000433008
0.000482879
0.000528479
0.000481974
0.000406942
0.000336353
0.000278103
0.000251109
0.000436283
0.000470863
0.000524035
0.000593551
0.000626576
0.00063337
0.000539856
0.00043167
0.000286876
0.000155608
8.90649e-05
1.75867e-05
-3.8443e-05
-0.000127475
-0.000338049
-0.00056699
-0.00095313
-0.00129329
-0.00166451
-0.00194252
-0.00211376
-0.00219436
-0.00213332
-0.00202389
-0.00181392
-0.00160588
-0.00135286
-0.00112418
-0.000875811
-0.000673816
-0.00047268
-0.000327322
-0.000196306
-0.000116115
-5.33336e-05
-2.40381e-05
-6.11571e-06
1.62718e-06
7.8439e-06
2.46682e-05
4.69632e-05
9.09763e-05
0.000139921
0.000209099
0.000274836
0.000349112
0.000408017
0.000459973
0.000487775
0.000496685
0.000481424
0.000443747
0.000392095
0.000323228
0.00025698
0.000183401
0.000127845
7.35398e-05
4.35302e-05
1.74119e-05
8.14046e-06
-1.31633e-06
-1.40735e-05
-3.43252e-05
-8.43413e-05
-0.000146475
-0.000261989
-0.000386311
-0.000576476
-0.000762392
-0.00101114
-0.00123548
-0.00150507
-0.00172911
-0.00196971
-0.00214308
-0.00230862
-0.00234756
-0.00230822
-0.00213172
-0.00183076
-0.00148716
-0.00104322
-0.00071606
-0.000363009
-0.000190312
-5.11228e-05
1.30662e-05
5.05852e-05
0.000132014
0.000217722
0.000328973
0.000446218
0.000487634
0.000506645
0.000449458
0.000378191
0.000305665
0.000254426
0.000227357
0.000400354
0.000434876
0.000486263
0.000555263
0.000618327
0.000624694
0.000586179
0.000479267
0.000351843
0.000222317
0.000110885
3.98924e-05
-3.34606e-05
-0.000122481
-0.00025797
-0.000485265
-0.000754573
-0.00109114
-0.00140236
-0.00167692
-0.00186483
-0.00194365
-0.00192979
-0.00182017
-0.00165554
-0.00144762
-0.00123604
-0.00100749
-0.000799961
-0.000598086
-0.000432027
-0.000286755
-0.00018073
-0.000100587
-5.10525e-05
-2.17746e-05
-6.32343e-06
1.41485e-06
1.31539e-05
2.99682e-05
6.2335e-05
0.000106322
0.000166774
0.00023591
0.000312299
0.00038653
0.000453723
0.000505648
0.000538311
0.000547216
0.000532491
0.000494837
0.000438724
0.000369898
0.000294204
0.000220669
0.000152026
9.77533e-05
5.41442e-05
2.80415e-05
9.42018e-06
-3.09676e-08
-1.24193e-05
-3.26588e-05
-6.79609e-05
-0.000130058
-0.000214402
-0.00033865
-0.00048275
-0.000668555
-0.000861691
-0.0010859
-0.00129844
-0.00152234
-0.00171188
-0.00188515
-0.00200298
-0.00204228
-0.0019764
-0.0018023
-0.00153872
-0.00119895
-0.000871714
-0.000547619
-0.000320711
-0.000148827
-4.97282e-05
1.4509e-05
8.87817e-05
0.000169313
0.000274638
0.000384387
0.000459568
0.000500685
0.000475655
0.000419364
0.000337639
0.000265605
0.000223813
0.000196793
0.000343382
0.000377711
0.000444407
0.00051449
0.000636969
0.000644336
0.000665562
0.000559653
0.000405382
0.000277243
0.000116553
4.56155e-05
1.30785e-06
-8.69328e-05
-0.000115423
-0.00033969
-0.000526771
-0.000859222
-0.0011716
-0.00144308
-0.0016716
-0.00174898
-0.00175801
-0.00164825
-0.00149886
-0.00129115
-0.00110762
-0.000879303
-0.000704085
-0.000502421
-0.000367958
-0.000222842
-0.000144888
-6.4835e-05
-3.70298e-05
-7.7868e-06
-5.15876e-06
2.57576e-06
1.20555e-05
2.88703e-05
6.94553e-05
0.000113429
0.00019015
0.000259257
0.00035531
0.000429505
0.000513905
0.000565805
0.000607873
0.00061678
0.000600594
0.000562963
0.000494844
0.000426056
0.000331488
0.000257987
0.00016953
0.000115273
5.73506e-05
3.12456e-05
9.09878e-06
-3.55202e-07
-2.43741e-06
-2.2654e-05
-3.33507e-05
-9.53693e-05
-0.000142655
-0.000266756
-0.000364972
-0.000550566
-0.000693821
-0.000917782
-0.00108192
-0.00130558
-0.00145711
-0.00163018
-0.00173414
-0.00177376
-0.00169703
-0.00152503
-0.00125323
-0.000917228
-0.000645088
-0.00032502
-0.000217898
-4.81393e-05
-3.68534e-05
2.70282e-05
0.000109326
0.000189426
0.000339539
0.000447567
0.0005106
0.000551354
0.000458666
0.000402072
0.000289356
0.000217891
0.000176761
0.000150051
0.000296389
0.000327988
0.000394368
0.000472651
0.000594292
0.000643611
0.000664871
0.000609021
0.000456112
0.000334875
0.00017483
7.90188e-05
3.55522e-05
-4.53952e-05
-7.09576e-05
-0.000227364
-0.000408795
-0.00065915
-0.000968664
-0.00120103
-0.00142974
-0.00151529
-0.00152412
-0.00144634
-0.00129623
-0.00113307
-0.000949656
-0.00076918
-0.000594085
-0.000436164
-0.000301794
-0.000190518
-0.000112618
-5.36689e-05
-2.58831e-05
-5.41938e-06
-2.79316e-06
5.60879e-06
1.50819e-05
3.80869e-05
7.86436e-05
0.00013078
0.000207448
0.000284372
0.000380359
0.000461012
0.000545353
0.000602069
0.000644107
0.000655901
0.000639727
0.00060234
0.000534269
0.000462141
0.000367638
0.0002868
0.000198404
0.000133871
7.59889e-05
3.97632e-05
1.76318e-05
3.09247e-06
1.01172e-06
-1.37745e-05
-2.44638e-05
-6.62507e-05
-0.000113503
-0.00020124
-0.000299387
-0.000435119
-0.000578274
-0.000745286
-0.000909314
-0.00107772
-0.00122914
-0.00135853
-0.00146153
-0.00148305
-0.00140666
-0.00125806
-0.00098805
-0.000727781
-0.000460956
-0.000235452
-0.000134455
-1.49089e-05
-5.71637e-06