/*--------------------------------*- C++ -*----------------------------------*\
| =========                 |                                                 |
| \\      /  F ield         | OpenFOAM: The Open Source CFD Toolbox           |
|  \\    /   O peration     | Version:  v2106                                 |
|   \\  /    A nd           | Website:  www.openfoam.com                      |
|    \\/     M anipulation  |                                                 |
\*---------------------------------------------------------------------------*/
FoamFile
{
    version     2.0;
    format      ascii;
    arch        "LSB;label=32;scalar=64";
    class       volScalarField;
    location    "0";
    object      expGpCoeffs1;
}
// * * * * * * * * * * * * * * * * * * * * * * * * * * * * * * * * * * * * * //

dimensions      [0 0 0 0 0 0 0];

internalField   nonuniform List<scalar> 
8000
(
0.011872
0.0113764
0.00968472
0.00632332
0.000448595
-0.00753909
-0.0171576
-0.0282345
-0.0395818
-0.0512574
-0.0624331
-0.0730511
-0.0826803
-0.0912814
-0.0986215
-0.104763
-0.109811
-0.113833
-0.117374
-0.120455
-0.123815
-0.127449
-0.13171
-0.136572
-0.141747
-0.14722
-0.152632
-0.157967
-0.163123
-0.168094
-0.172846
-0.177373
-0.18165
-0.185672
-0.18942
-0.192892
-0.196076
-0.19897
-0.20157
-0.203875
-0.205887
-0.207606
-0.209038
-0.210184
-0.211054
-0.211649
-0.21198
-0.21205
-0.211871
-0.211444
-0.210782
-0.209886
-0.208766
-0.207424
-0.205867
-0.204097
-0.202118
-0.199932
-0.197541
-0.194946
-0.192149
-0.189151
-0.185953
-0.182557
-0.178968
-0.175187
-0.171223
-0.167078
-0.162768
-0.158295
-0.153681
-0.148929
-0.14407
-0.139105
-0.134134
-0.12917
-0.124565
-0.120331
-0.11673
-0.11378
-0.111074
-0.108612
-0.105624
-0.102089
-0.0975185
-0.0918528
-0.0851216
-0.0772787
-0.0686866
-0.0593922
-0.0498628
-0.0401508
-0.0309206
-0.0221299
-0.0145937
-0.00843462
-0.00388593
-0.00121511
0.000201362
0.000681754
0.0119119
0.0114164
0.00987518
0.00651642
0.000635012
-0.0073495
-0.0170797
-0.0281588
-0.0395885
-0.0512689
-0.0624892
-0.0731122
-0.082768
-0.0913739
-0.0987179
-0.104864
-0.109877
-0.113901
-0.11738
-0.120461
-0.123763
-0.127396
-0.131663
-0.136524
-0.141745
-0.147218
-0.152645
-0.15798
-0.163139
-0.16811
-0.172865
-0.177392
-0.181672
-0.185693
-0.189443
-0.192915
-0.1961
-0.198993
-0.201594
-0.203899
-0.205911
-0.20763
-0.209061
-0.210207
-0.211076
-0.211671
-0.212001
-0.212071
-0.211891
-0.211464
-0.210801
-0.209905
-0.208784
-0.207442
-0.205884
-0.204114
-0.202135
-0.199949
-0.197557
-0.194963
-0.192165
-0.189167
-0.185969
-0.182573
-0.178983
-0.175202
-0.171236
-0.167092
-0.16278
-0.158307
-0.15369
-0.14894
-0.144077
-0.139113
-0.134126
-0.129163
-0.124513
-0.12028
-0.116677
-0.113728
-0.111086
-0.108623
-0.105697
-0.10216
-0.0976144
-0.0919453
-0.085196
-0.0773489
-0.0687209
-0.0594226
-0.049851
-0.0401356
-0.0308448
-0.0220528
-0.0144443
-0.00828781
-0.00374652
-0.00107762
0.000240149
0.000720438
0.011955
0.0114596
0.0100808
0.00672494
0.000836314
-0.00714476
-0.0169957
-0.0280771
-0.0395957
-0.0512814
-0.0625497
-0.0731783
-0.0828626
-0.0914737
-0.098822
-0.104972
-0.109948
-0.113974
-0.117386
-0.120468
-0.123707
-0.127339
-0.131612
-0.136472
-0.141744
-0.147215
-0.152659
-0.157993
-0.163158
-0.168128
-0.172886
-0.177413
-0.181695
-0.185716
-0.189468
-0.192939
-0.196125
-0.199019
-0.20162
-0.203924
-0.205936
-0.207655
-0.209086
-0.210231
-0.2111
-0.211694
-0.212023
-0.212093
-0.211912
-0.211485
-0.21082
-0.209924
-0.208803
-0.207461
-0.205902
-0.204132
-0.202152
-0.199967
-0.197575
-0.194981
-0.192182
-0.189185
-0.185986
-0.182591
-0.178999
-0.175219
-0.171251
-0.167108
-0.162793
-0.158321
-0.153701
-0.148951
-0.144084
-0.139121
-0.134118
-0.129155
-0.124456
-0.120224
-0.11662
-0.113672
-0.111098
-0.108636
-0.105776
-0.102237
-0.0977181
-0.0920451
-0.0852762
-0.0774247
-0.068758
-0.0594554
-0.0498382
-0.0401191
-0.030763
-0.0219697
-0.0142831
-0.00812927
-0.00359599
-0.000929155
0.000282033
0.00076221
0.0120015
0.0115062
0.0103029
0.00695011
0.00105369
-0.00692368
-0.0169048
-0.0279889
-0.0396034
-0.0512949
-0.0626151
-0.0732497
-0.0829648
-0.0915815
-0.0989345
-0.105089
-0.110024
-0.114052
-0.117393
-0.120475
-0.123647
-0.127278
-0.131557
-0.136416
-0.141742
-0.147213
-0.152675
-0.158008
-0.163177
-0.168146
-0.172909
-0.177435
-0.181721
-0.185741
-0.189495
-0.192966
-0.196153
-0.199046
-0.201648
-0.203952
-0.205964
-0.207682
-0.209112
-0.210258
-0.211125
-0.211719
-0.212047
-0.212117
-0.211934
-0.211508
-0.210842
-0.209946
-0.208823
-0.207481
-0.205922
-0.204152
-0.202171
-0.199986
-0.197594
-0.195
-0.192201
-0.189204
-0.186004
-0.182609
-0.179017
-0.175237
-0.171268
-0.167124
-0.162807
-0.158336
-0.153712
-0.148963
-0.144092
-0.13913
-0.13411
-0.129147
-0.124395
-0.120164
-0.116559
-0.113611
-0.111112
-0.108649
-0.105861
-0.10232
-0.09783
-0.0921528
-0.0853629
-0.0775066
-0.0687981
-0.0594908
-0.0498244
-0.0401012
-0.0306747
-0.0218799
-0.0141089
-0.00795808
-0.00343344
-0.000768834
0.000327261
0.000807317
0.0120517
0.0115566
0.0105427
0.00721227
0.00128842
-0.00668495
-0.0168068
-0.0278936
-0.0396118
-0.0513095
-0.0626857
-0.0733267
-0.0830751
-0.0916979
-0.0990559
-0.105215
-0.110107
-0.114137
-0.117401
-0.120483
-0.123581
-0.127211
-0.131497
-0.136356
-0.14174
-0.14721
-0.152691
-0.158024
-0.163198
-0.168167
-0.172934
-0.177459
-0.181748
-0.185768
-0.189524
-0.192994
-0.196183
-0.199076
-0.201678
-0.203982
-0.205994
-0.207711
-0.209141
-0.210286
-0.211152
-0.211747
-0.212073
-0.212143
-0.211959
-0.211532
-0.210865
-0.209969
-0.208845
-0.207503
-0.205943
-0.204174
-0.202192
-0.200007
-0.197614
-0.195021
-0.192221
-0.189224
-0.186023
-0.18263
-0.179035
-0.175256
-0.171285
-0.167143
-0.162822
-0.158352
-0.153725
-0.148976
-0.1441
-0.139139
-0.1341
-0.129139
-0.124329
-0.120099
-0.116492
-0.113546
-0.111127
-0.108664
-0.105953
-0.10241
-0.0979508
-0.0922692
-0.0854565
-0.077595
-0.0688414
-0.0595291
-0.0498095
-0.040082
-0.0305793
-0.0217829
-0.0139208
-0.00777321
-0.00324399
-0.000595713
0.0003761
0.000856026
0.0121806
0.0117013
0.0108485
0.00761266
0.00159892
-0.00626036
-0.016655
-0.0276676
-0.0396116
-0.0512933
-0.0627383
-0.0733625
-0.0831619
-0.0917734
-0.0991792
-0.105345
-0.110197
-0.114229
-0.117409
-0.120491
-0.12351
-0.127139
-0.131433
-0.136291
-0.141784
-0.147257
-0.152757
-0.158092
-0.163272
-0.168242
-0.173014
-0.177542
-0.181834
-0.185856
-0.189615
-0.193086
-0.196277
-0.199171
-0.201774
-0.20408
-0.206091
-0.207811
-0.20924
-0.210386
-0.211251
-0.211847
-0.212172
-0.212243
-0.212057
-0.211631
-0.210963
-0.210067
-0.208942
-0.207601
-0.206039
-0.20427
-0.202288
-0.200102
-0.197709
-0.195114
-0.192314
-0.189317
-0.186115
-0.182719
-0.179124
-0.175343
-0.171369
-0.167225
-0.162902
-0.158428
-0.153798
-0.149046
-0.144166
-0.139201
-0.134144
-0.129179
-0.124258
-0.120029
-0.116421
-0.113475
-0.111143
-0.108679
-0.106053
-0.102507
-0.0980759
-0.0923877
-0.0855133
-0.0776627
-0.0688494
-0.0595519
-0.0497689
-0.0400545
-0.0303864
-0.0216467
-0.0135997
-0.007538
-0.00295347
-0.000378673
0.000487795
0.000955883
0.0124788
0.0120401
0.0111892
0.00804502
0.00203949
-0.00572941
-0.0161129
-0.0270825
-0.0390148
-0.0507288
-0.0621632
-0.0728956
-0.0826869
-0.0914687
-0.0988699
-0.105242
-0.110101
-0.114332
-0.117505
-0.120721
-0.123739
-0.127445
-0.131782
-0.136703
-0.142255
-0.147769
-0.153269
-0.158639
-0.163818
-0.168823
-0.173593
-0.178153
-0.182444
-0.186496
-0.190255
-0.193754
-0.196943
-0.199862
-0.202465
-0.204792
-0.206803
-0.208542
-0.209971
-0.211133
-0.211998
-0.212607
-0.212932
-0.213013
-0.212827
-0.212408
-0.21174
-0.210849
-0.209723
-0.208382
-0.206821
-0.205048
-0.203067
-0.200874
-0.198481
-0.195875
-0.193075
-0.190061
-0.18686
-0.183443
-0.179848
-0.176041
-0.172068
-0.167893
-0.16357
-0.159061
-0.154431
-0.149639
-0.14476
-0.13975
-0.134694
-0.129677
-0.124695
-0.120392
-0.11674
-0.11371
-0.11138
-0.108778
-0.106157
-0.102418
-0.0979796
-0.0921069
-0.0852366
-0.0772526
-0.0684461
-0.0590808
-0.0493062
-0.0395887
-0.0299296
-0.0212405
-0.0132017
-0.00721838
-0.00263976
-0.000137566
0.000727486
0.00116447
0.0128009
0.0124059
0.0115571
0.0085119
0.00251523
-0.00515607
-0.0155275
-0.0264507
-0.0383703
-0.0501192
-0.0615422
-0.0723914
-0.082174
-0.0911396
-0.0985358
-0.105131
-0.109989
-0.114443
-0.117618
-0.121022
-0.124043
-0.12788
-0.132217
-0.137213
-0.142763
-0.148323
-0.153821
-0.15923
-0.164408
-0.16945
-0.174219
-0.178814
-0.183104
-0.187188
-0.190946
-0.194474
-0.197663
-0.200609
-0.203211
-0.205562
-0.207572
-0.209331
-0.21076
-0.21194
-0.212804
-0.213427
-0.213752
-0.213844
-0.213659
-0.213248
-0.212579
-0.211692
-0.210567
-0.209227
-0.207666
-0.205889
-0.203908
-0.201707
-0.199314
-0.196696
-0.193897
-0.190865
-0.187664
-0.184225
-0.180631
-0.176795
-0.172823
-0.168614
-0.164292
-0.159744
-0.155115
-0.150279
-0.145401
-0.140343
-0.135288
-0.130215
-0.125234
-0.120846
-0.117192
-0.114023
-0.111689
-0.108893
-0.106271
-0.102313
-0.0978756
-0.0918037
-0.0849379
-0.0768097
-0.0680106
-0.058572
-0.0488066
-0.0390856
-0.0294362
-0.0208018
-0.0127719
-0.00687324
-0.002301
0.000122791
0.000986313
0.00138972
0.0131486
0.0128009
0.0119544
0.00901605
0.00302895
-0.00453696
-0.0148954
-0.0257684
-0.0376744
-0.049461
-0.0608715
-0.0718469
-0.0816201
-0.0907843
-0.0981751
-0.105011
-0.109868
-0.114562
-0.11774
-0.121347
-0.124372
-0.128349
-0.132687
-0.137763
-0.143312
-0.14892
-0.154417
-0.159869
-0.165045
-0.170127
-0.174895
-0.179527
-0.183816
-0.187935
-0.191692
-0.195252
-0.198441
-0.201415
-0.204016
-0.206393
-0.208403
-0.210184
-0.211612
-0.212811
-0.213675
-0.214313
-0.214639
-0.214742
-0.214557
-0.214154
-0.213486
-0.212603
-0.211478
-0.210138
-0.208578
-0.206797
-0.204816
-0.202607
-0.200214
-0.197582
-0.194784
-0.191733
-0.188533
-0.185069
-0.181476
-0.177609
-0.173638
-0.169392
-0.165072
-0.160481
-0.155854
-0.15097
-0.146093
-0.140984
-0.13593
-0.130796
-0.125816
-0.121336
-0.117681
-0.11436
-0.112023
-0.109017
-0.106393
-0.1022
-0.0977633
-0.0914763
-0.0846153
-0.0763315
-0.0675403
-0.0580226
-0.0482671
-0.0385425
-0.0289035
-0.0203282
-0.0123078
-0.00650054
-0.0019352
0.000403936
0.00126581
0.00163295
0.0135241
0.0132274
0.0123834
0.00956046
0.00358369
-0.00386841
-0.0142129
-0.0250317
-0.0369229
-0.0487502
-0.0601473
-0.071259
-0.081022
-0.0904006
-0.0977856
-0.104881
-0.109737
-0.114692
-0.117872
-0.121699
-0.124727
-0.128855
-0.133195
-0.138357
-0.143905
-0.149566
-0.155061
-0.160558
-0.165733
-0.170858
-0.175625
-0.180297
-0.184586
-0.188742
-0.192498
-0.196092
-0.19928
-0.202285
-0.204886
-0.20729
-0.2093
-0.211105
-0.212532
-0.213752
-0.214616
-0.21527
-0.215595
-0.215712
-0.215526
-0.215132
-0.214464
-0.213587
-0.212462
-0.211122
-0.209562
-0.207778
-0.205797
-0.203578
-0.201187
-0.198539
-0.195742
-0.19267
-0.189471
-0.18598
-0.182388
-0.178489
-0.174519
-0.170233
-0.165914
-0.161278
-0.156651
-0.151717
-0.146841
-0.141675
-0.136622
-0.131423
-0.126444
-0.121865
-0.118209
-0.114725
-0.112384
-0.109152
-0.106525
-0.102078
-0.0976421
-0.0911227
-0.0842669
-0.0758151
-0.0670325
-0.0574293
-0.0476846
-0.0379559
-0.0283282
-0.0198167
-0.0118066
-0.00609809
-0.00154019
0.000707527
0.00156761
0.0018956
0.0139296
0.013688
0.0128466
0.0101483
0.00418272
-0.00314649
-0.0134758
-0.0242362
-0.0361114
-0.0479827
-0.0593653
-0.0706242
-0.0803761
-0.0899862
-0.097365
-0.104741
-0.109596
-0.114832
-0.118015
-0.122078
-0.12511
-0.129402
-0.133743
-0.138999
-0.144545
-0.150262
-0.155757
-0.161302
-0.166476
-0.171647
-0.176413
-0.181129
-0.185416
-0.189613
-0.193368
-0.197
-0.200187
-0.203225
-0.205825
-0.208259
-0.210268
-0.212099
-0.213526
-0.214767
-0.215631
-0.216304
-0.216629
-0.216759
-0.216574
-0.216189
-0.215521
-0.214649
-0.213524
-0.212185
-0.210626
-0.208836
-0.206856
-0.204627
-0.202236
-0.199573
-0.196776
-0.193682
-0.190484
-0.186964
-0.183373
-0.179438
-0.175469
-0.171141
-0.166823
-0.162138
-0.157512
-0.152523
-0.147648
-0.142422
-0.13737
-0.132101
-0.127123
-0.122436
-0.118779
-0.115118
-0.112774
-0.109297
-0.106667
-0.101946
-0.0975111
-0.0907409
-0.0838907
-0.0752574
-0.0664842
-0.0567887
-0.0470555
-0.0373226
-0.027707
-0.0192644
-0.0112655
-0.0056635
-0.00111364
0.00103536
0.00189352
0.00217921
0.0143674
0.0141854
0.0133468
0.0107831
0.00482958
-0.00236693
-0.0126799
-0.0233771
-0.0352352
-0.0471539
-0.0585209
-0.0699386
-0.0796786
-0.0895388
-0.0969107
-0.10459
-0.109443
-0.114983
-0.118169
-0.122488
-0.125523
-0.129993
-0.134335
-0.139691
-0.145236
-0.151015
-0.156508
-0.162105
-0.167278
-0.172499
-0.177264
-0.182027
-0.186313
-0.190554
-0.194308
-0.197979
-0.201165
-0.20424
-0.206839
-0.209305
-0.211314
-0.213172
-0.214599
-0.215864
-0.216727
-0.21742
-0.217744
-0.21789
-0.217704
-0.21733
-0.216663
-0.215796
-0.214672
-0.213333
-0.211774
-0.20998
-0.208
-0.20576
-0.20337
-0.200689
-0.197893
-0.194776
-0.191578
-0.188027
-0.184437
-0.180463
-0.176496
-0.172122
-0.167805
-0.163067
-0.158442
-0.153393
-0.14852
-0.143228
-0.138178
-0.132832
-0.127856
-0.123053
-0.119394
-0.115543
-0.113194
-0.109454
-0.106821
-0.101803
-0.0973698
-0.0903286
-0.0834845
-0.0746552
-0.065892
-0.0560969
-0.0463762
-0.0366386
-0.0270362
-0.018668
-0.0106811
-0.00519421
-0.000653034
0.00138936
0.00224544
0.00248548
0.0150595
0.0149076
0.0141105
0.0115445
0.00580964
-0.00138633
-0.0114801
-0.0221912
-0.0339879
-0.0459477
-0.0573057
-0.0688519
-0.0786747
-0.0887302
-0.0963008
-0.1042
-0.109282
-0.115058
-0.118415
-0.122969
-0.126103
-0.130751
-0.135173
-0.140611
-0.146275
-0.152095
-0.157618
-0.163252
-0.168459
-0.173715
-0.178513
-0.183309
-0.187627
-0.191897
-0.195681
-0.19938
-0.202594
-0.205693
-0.208318
-0.210806
-0.212837
-0.214715
-0.216162
-0.217443
-0.218324
-0.219029
-0.219368
-0.219524
-0.219349
-0.218982
-0.218322
-0.217459
-0.216338
-0.215
-0.21344
-0.211643
-0.209658
-0.207411
-0.20501
-0.202318
-0.199507
-0.196373
-0.193156
-0.189583
-0.185968
-0.181968
-0.17797
-0.173565
-0.169212
-0.164438
-0.159773
-0.154683
-0.149765
-0.144429
-0.139338
-0.133939
-0.128827
-0.12393
-0.120182
-0.116139
-0.113685
-0.109702
-0.106898
-0.10165
-0.0970082
-0.08977
-0.0827687
-0.0737845
-0.0649805
-0.0551022
-0.0454148
-0.0356692
-0.0261342
-0.0177753
-0.00996279
-0.00448764
-0.00010661
0.00193548
0.00274277
0.00295934
0.0160479
0.0158972
0.0149477
0.0123932
0.00699107
-0.000175786
-0.00975783
-0.0204232
-0.0319952
-0.0439052
-0.0553937
-0.0668962
-0.0771306
-0.0871537
-0.0953601
-0.103243
-0.109118
-0.114893
-0.119056
-0.123618
-0.127401
-0.132058
-0.136788
-0.142226
-0.147961
-0.15378
-0.159396
-0.165029
-0.170345
-0.175599
-0.180502
-0.185296
-0.189713
-0.193983
-0.197859
-0.201557
-0.204857
-0.207955
-0.210658
-0.213145
-0.215247
-0.217124
-0.218632
-0.219912
-0.220845
-0.221551
-0.221932
-0.222088
-0.221946
-0.221579
-0.22094
-0.220077
-0.218967
-0.217629
-0.216066
-0.214269
-0.212267
-0.210021
-0.207589
-0.204898
-0.20204
-0.198907
-0.195627
-0.192056
-0.188362
-0.184363
-0.180271
-0.175867
-0.171405
-0.166632
-0.161844
-0.156755
-0.151701
-0.146366
-0.141147
-0.135751
-0.130529
-0.125632
-0.12153
-0.117479
-0.114337
-0.110345
-0.106734
-0.101487
-0.0961212
-0.0888989
-0.0813976
-0.0724414
-0.0633816
-0.0535387
-0.0438345
-0.034127
-0.0248251
-0.0164996
-0.00909178
-0.00363737
0.000500584
0.00253449
0.00341259
0.00362835
0.0171194
0.0169699
0.0162151
0.0136704
0.00843137
0.0012924
-0.00789809
-0.0185139
-0.0298435
-0.0416996
-0.053329
-0.0647844
-0.0754632
-0.0854515
-0.0943444
-0.102208
-0.108941
-0.114715
-0.119748
-0.12432
-0.128803
-0.133469
-0.138533
-0.143971
-0.149783
-0.155599
-0.161317
-0.166947
-0.172382
-0.177634
-0.18265
-0.187443
-0.191967
-0.196234
-0.200211
-0.203908
-0.2073
-0.210398
-0.213185
-0.215671
-0.217848
-0.219724
-0.221299
-0.222579
-0.223569
-0.224274
-0.224701
-0.224857
-0.22475
-0.224383
-0.223768
-0.222905
-0.221805
-0.220467
-0.218901
-0.217105
-0.215085
-0.212839
-0.210373
-0.207683
-0.204774
-0.201642
-0.198295
-0.194725
-0.190947
-0.18695
-0.182756
-0.178354
-0.173773
-0.169002
-0.16408
-0.158993
-0.15379
-0.148457
-0.143101
-0.137706
-0.132367
-0.127469
-0.122987
-0.118926
-0.115041
-0.11104
-0.106557
-0.101311
-0.0951635
-0.0879584
-0.0799171
-0.070991
-0.0616551
-0.0518504
-0.042128
-0.0324617
-0.0234114
-0.0151221
-0.00802702
-0.00259228
0.00141293
0.00343977
0.00414184
0.00435674
0.0183437
0.0181956
0.0182449
0.0157277
0.0109298
0.00385712
-0.00532289
-0.0158674
-0.0274274
-0.0392224
-0.0512825
-0.0626922
-0.0740496
-0.0840102
-0.0937225
-0.101578
-0.10911
-0.11489
-0.120598
-0.125182
-0.130169
-0.134842
-0.140257
-0.145695
-0.15176
-0.157575
-0.163468
-0.169096
-0.174679
-0.179929
-0.185084
-0.189875
-0.194527
-0.198793
-0.202887
-0.206582
-0.210079
-0.213175
-0.216055
-0.21854
-0.220797
-0.222672
-0.224315
-0.225594
-0.226639
-0.227344
-0.227815
-0.227971
-0.227895
-0.227529
-0.226933
-0.226071
-0.224977
-0.223641
-0.222067
-0.220272
-0.218231
-0.215986
-0.213482
-0.210793
-0.20783
-0.204699
-0.201277
-0.197709
-0.193835
-0.18984
-0.18553
-0.181129
-0.176411
-0.171641
-0.166561
-0.161476
-0.156096
-0.150765
-0.145194
-0.139801
-0.13417
-0.129272
-0.124407
-0.120338
-0.115923
-0.11191
-0.106735
-0.101483
-0.0945598
-0.0873629
-0.0785969
-0.0696964
-0.0598425
-0.0500775
-0.0401003
-0.0304842
-0.0213505
-0.0131165
-0.00612255
-0.000736939
0.00288067
0.00488789
0.00502529
0.00523913
0.0196625
0.0195187
0.0202465
0.0177806
0.0136029
0.0065374
-0.00253797
-0.0130043
-0.02481
-0.0365387
-0.0490865
-0.0604472
-0.0725473
-0.0824786
-0.0930986
-0.100946
-0.10935
-0.115138
-0.121537
-0.126134
-0.131609
-0.136291
-0.14209
-0.147528
-0.153897
-0.159709
-0.165796
-0.171421
-0.177165
-0.182413
-0.187718
-0.192507
-0.197298
-0.201563
-0.205783
-0.209477
-0.213087
-0.216182
-0.219161
-0.221645
-0.223988
-0.225863
-0.227578
-0.228857
-0.229962
-0.230666
-0.231184
-0.23134
-0.231298
-0.230932
-0.230357
-0.229495
-0.228409
-0.227073
-0.225492
-0.223698
-0.221633
-0.219389
-0.216846
-0.214158
-0.211135
-0.208005
-0.204503
-0.200936
-0.19696
-0.192966
-0.18853
-0.184131
-0.179263
-0.174496
-0.169243
-0.16416
-0.158588
-0.153259
-0.147453
-0.142063
-0.136083
-0.131185
-0.125906
-0.121827
-0.1169
-0.112874
-0.106986
-0.101727
-0.0939505
-0.0867621
-0.0771885
-0.0683152
-0.0578891
-0.048167
-0.0378939
-0.0283324
-0.0191201
-0.0109471
-0.00413281
0.00124698
0.0043488
0.00631238
0.00597837
0.00618909
0.0208811
0.0209242
0.0216596
0.0196483
0.0155111
0.00895466
-1.8477e-05
-0.0101774
-0.0219177
-0.0336178
-0.0461539
-0.0578017
-0.0699247
-0.080433
-0.0911355
-0.0997573
-0.108279
-0.114885
-0.121391
-0.126681
-0.132242
-0.137373
-0.143218
-0.148863
-0.155188
-0.161096
-0.167196
-0.172891
-0.178645
-0.183959
-0.189274
-0.194126
-0.198927
-0.203252
-0.20748
-0.211232
-0.214849
-0.218001
-0.220986
-0.223524
-0.225873
-0.2278
-0.22952
-0.230849
-0.231958
-0.232708
-0.23323
-0.233428
-0.233389
-0.23306
-0.232487
-0.231656
-0.230571
-0.229257
-0.227677
-0.225896
-0.223831
-0.22159
-0.219044
-0.216346
-0.213319
-0.210165
-0.206659
-0.203053
-0.19907
-0.195021
-0.190577
-0.186106
-0.181229
-0.176373
-0.171109
-0.165922
-0.160338
-0.154891
-0.14907
-0.143529
-0.137581
-0.132428
-0.127096
-0.122536
-0.117517
-0.112795
-0.106796
-0.100773
-0.0928818
-0.085039
-0.0753944
-0.0661039
-0.0556646
-0.0458007
-0.0355474
-0.0260938
-0.0169474
-0.00907161
-0.00234084
0.00261963
0.0056923
0.00730308
0.00696364
0.00703207
0.0221969
0.0224419
0.0231856
0.021665
0.0175717
0.0115649
0.00266312
-0.00712641
-0.0187861
-0.0304613
-0.0429219
-0.0549255
-0.0669858
-0.0781951
-0.0888532
-0.0984126
-0.106912
-0.114509
-0.121011
-0.127155
-0.132719
-0.138417
-0.144263
-0.150175
-0.156498
-0.162518
-0.168614
-0.174392
-0.180143
-0.185534
-0.190847
-0.195772
-0.200571
-0.204966
-0.209193
-0.213013
-0.216629
-0.219845
-0.22283
-0.225431
-0.227779
-0.229766
-0.231485
-0.232871
-0.233979
-0.234784
-0.235305
-0.235552
-0.235513
-0.235228
-0.234655
-0.23386
-0.232775
-0.231489
-0.22991
-0.228144
-0.22608
-0.223842
-0.221297
-0.218587
-0.215562
-0.21238
-0.208875
-0.205223
-0.201242
-0.197129
-0.192687
-0.188133
-0.183258
-0.178299
-0.173038
-0.16773
-0.162148
-0.156565
-0.150746
-0.145031
-0.139086
-0.133605
-0.12827
-0.1231
-0.118076
-0.112496
-0.1065
-0.0995484
-0.091678
-0.083043
-0.073437
-0.0636393
-0.0532522
-0.0432103
-0.0330172
-0.0236872
-0.0146025
-0.00708378
-0.000405798
0.00410187
0.00714306
0.00837289
0.00802757
0.00794235
0.0236179
0.0240808
0.0248334
0.0238428
0.0197968
0.0143836
0.00555882
-0.00383183
-0.0154044
-0.0270529
-0.0394319
-0.0518197
-0.0638123
-0.0757786
-0.0863887
-0.0969606
-0.105435
-0.114104
-0.120601
-0.127666
-0.133234
-0.139544
-0.145392
-0.151593
-0.157913
-0.164053
-0.170146
-0.176012
-0.18176
-0.187235
-0.192545
-0.19755
-0.202346
-0.206818
-0.211042
-0.214936
-0.21855
-0.221837
-0.22482
-0.227489
-0.229836
-0.231888
-0.233607
-0.235055
-0.236163
-0.237025
-0.237546
-0.237846
-0.237808
-0.237569
-0.236997
-0.23624
-0.235156
-0.233899
-0.23232
-0.230572
-0.228509
-0.226274
-0.22373
-0.221008
-0.217984
-0.214772
-0.211269
-0.207567
-0.203588
-0.199406
-0.194965
-0.190321
-0.185448
-0.180379
-0.17512
-0.169682
-0.164103
-0.158372
-0.152556
-0.146652
-0.14071
-0.134875
-0.129538
-0.123708
-0.11868
-0.112173
-0.106181
-0.0982266
-0.0903781
-0.0808877
-0.0713233
-0.0609779
-0.0506473
-0.040413
-0.0302849
-0.0210885
-0.0120705
-0.00493724
0.00168374
0.00570246
0.00870966
0.00952811
0.00917645
0.00892531
0.0251316
0.025665
0.0260008
0.0251794
0.0216374
0.0165182
0.0084674
-0.00070351
-0.0117347
-0.0233148
-0.0354849
-0.0479762
-0.0600678
-0.0722971
-0.0833166
-0.09427
-0.103417
-0.112513
-0.119763
-0.127217
-0.133388
-0.139971
-0.146062
-0.152396
-0.158648
-0.164833
-0.170902
-0.176799
-0.182525
-0.188031
-0.193322
-0.198356
-0.203138
-0.207639
-0.211855
-0.215776
-0.219391
-0.222705
-0.225696
-0.228391
-0.230754
-0.232832
-0.234574
-0.236046
-0.237185
-0.23807
-0.238627
-0.238948
-0.238948
-0.238728
-0.238197
-0.237456
-0.236412
-0.235167
-0.233626
-0.231885
-0.229857
-0.227623
-0.225109
-0.222383
-0.219382
-0.216159
-0.212671
-0.208951
-0.20498
-0.200771
-0.196331
-0.191653
-0.186772
-0.181662
-0.176387
-0.1709
-0.165297
-0.15951
-0.153667
-0.147692
-0.141762
-0.135763
-0.130136
-0.124009
-0.118366
-0.111465
-0.10478
-0.0964245
-0.0880394
-0.0782272
-0.0684136
-0.057883
-0.04757
-0.0372998
-0.0274089
-0.0183112
-0.00974669
-0.0028124
0.00322566
0.00701176
0.009659
0.0103526
0.0102521
0.00994727
0.0266295
0.0271643
0.0279047
0.0271033
0.0241573
0.0190961
0.0118576
0.00277902
-0.00760765
-0.0190818
-0.0310697
-0.0434581
-0.0558942
-0.0680335
-0.0798613
-0.0907473
-0.101044
-0.110101
-0.1186
-0.126039
-0.133217
-0.139796
-0.146351
-0.152682
-0.15898
-0.165162
-0.171201
-0.177095
-0.182794
-0.188297
-0.193564
-0.198595
-0.20336
-0.207858
-0.212067
-0.215986
-0.219604
-0.222916
-0.225924
-0.228617
-0.231009
-0.233085
-0.234868
-0.236339
-0.237528
-0.238412
-0.239028
-0.239349
-0.239414
-0.239194
-0.23873
-0.23799
-0.237013
-0.235769
-0.234292
-0.232552
-0.23058
-0.228349
-0.225883
-0.223158
-0.220194
-0.216973
-0.21351
-0.209792
-0.205832
-0.201626
-0.197181
-0.192506
-0.187605
-0.182497
-0.177187
-0.171703
-0.16605
-0.160267
-0.154363
-0.148391
-0.142325
-0.136329
-0.130155
-0.124031
-0.117355
-0.110467
-0.102623
-0.0943023
-0.0849787
-0.0752249
-0.0648715
-0.0544152
-0.0439892
-0.0338001
-0.0241926
-0.0151751
-0.00718539
-0.000318532
0.00507605
0.00882083
0.0110073
0.0116868
0.0112662
0.0109604
0.0279464
0.0284976
0.0304868
0.0297882
0.027991
0.0230167
0.0164925
0.00752567
-0.00262715
-0.0139712
-0.0261587
-0.0384319
-0.0515712
-0.0636147
-0.0766121
-0.0874359
-0.0990635
-0.108089
-0.117747
-0.125174
-0.133161
-0.139737
-0.146687
-0.153014
-0.159404
-0.165581
-0.171625
-0.177515
-0.183211
-0.18871
-0.193973
-0.199001
-0.203764
-0.208259
-0.212471
-0.216387
-0.220015
-0.223324
-0.226351
-0.229042
-0.231463
-0.233537
-0.235359
-0.236829
-0.238066
-0.23895
-0.239622
-0.239943
-0.240071
-0.239851
-0.239454
-0.238714
-0.237807
-0.236563
-0.235153
-0.233414
-0.231505
-0.229274
-0.226861
-0.224139
-0.221216
-0.217997
-0.21456
-0.210845
-0.206892
-0.202689
-0.198231
-0.193559
-0.188623
-0.183519
-0.178151
-0.172671
-0.166937
-0.161158
-0.155147
-0.149179
-0.142911
-0.136918
-0.130275
-0.124153
-0.116642
-0.109763
-0.1008
-0.0925077
-0.0820104
-0.0723122
-0.0610602
-0.0506857
-0.039848
-0.0297537
-0.0201702
-0.0112551
-0.00360545
0.00317769
0.00792191
0.0116003
0.0128876
0.0134869
0.012198
0.0118801
0.0292286
0.030057
0.0320539
0.0321232
0.0303778
0.0264585
0.0200308
0.0120633
0.00204627
-0.00867662
-0.0207375
-0.0328917
-0.0459157
-0.0583919
-0.0713124
-0.0830385
-0.0946455
-0.104811
-0.114474
-0.122938
-0.130941
-0.138132
-0.145058
-0.151502
-0.157792
-0.163829
-0.16987
-0.175577
-0.181269
-0.186593
-0.191852
-0.19672
-0.201479
-0.205833
-0.210043
-0.213843
-0.217469
-0.220692
-0.223716
-0.226352
-0.228771
-0.230821
-0.232641
-0.234117
-0.235354
-0.236272
-0.236944
-0.237324
-0.237452
-0.237314
-0.236917
-0.236276
-0.235369
-0.234237
-0.232828
-0.23121
-0.229301
-0.227196
-0.224785
-0.22219
-0.219269
-0.216176
-0.212741
-0.209149
-0.205199
-0.201113
-0.196659
-0.192098
-0.187165
-0.182164
-0.176799
-0.171413
-0.165684
-0.159988
-0.153981
-0.148047
-0.141868
-0.135672
-0.129043
-0.122279
-0.114746
-0.106903
-0.09793
-0.0886879
-0.0782089
-0.067872
-0.0566874
-0.0461264
-0.0353837
-0.0255447
-0.0160622
-0.00774706
-0.000202751
0.00575445
0.0104283
0.0132933
0.0145439
0.0145673
0.0132731
0.0127477
0.0306132
0.0317409
0.0337319
0.0346446
0.0329551
0.0301751
0.0238516
0.0169633
0.00707881
-0.0029609
-0.0148818
-0.0269091
-0.0397986
-0.052752
-0.065555
-0.078277
-0.0897952
-0.101214
-0.110821
-0.120427
-0.1284
-0.136274
-0.143188
-0.149766
-0.156052
-0.161938
-0.167974
-0.173485
-0.179172
-0.184307
-0.189563
-0.194256
-0.199012
-0.203215
-0.207421
-0.211097
-0.21472
-0.21785
-0.220871
-0.223447
-0.225864
-0.227888
-0.229707
-0.231189
-0.232425
-0.23338
-0.234052
-0.234497
-0.234625
-0.234575
-0.234178
-0.233643
-0.232737
-0.231725
-0.230317
-0.228829
-0.226922
-0.224953
-0.222543
-0.220085
-0.217166
-0.21421
-0.210777
-0.207318
-0.20337
-0.199412
-0.194961
-0.190519
-0.185591
-0.180701
-0.17534
-0.170055
-0.16433
-0.158725
-0.152723
-0.146824
-0.140649
-0.13422
-0.127602
-0.120122
-0.112614
-0.103709
-0.0947846
-0.0844973
-0.0740945
-0.0630523
-0.0519655
-0.0411978
-0.030563
-0.0210019
-0.0116277
-0.00397334
0.00347163
0.00853694
0.0131349
0.0151216
0.0163325
0.0157245
0.0144339
0.0136846
0.0322379
0.0334096
0.0347099
0.0357162
0.0347811
0.0322798
0.027408
0.020827
0.0123192
0.00253197
-0.00845276
-0.0203322
-0.0327779
-0.0457069
-0.0585903
-0.0714043
-0.0835417
-0.095128
-0.105666
-0.11545
-0.124204
-0.132193
-0.139385
-0.14599
-0.15206
-0.157914
-0.163635
-0.169104
-0.174451
-0.179547
-0.184484
-0.189141
-0.19361
-0.197781
-0.201738
-0.205388
-0.208807
-0.211916
-0.214782
-0.217344
-0.219654
-0.221672
-0.223433
-0.224916
-0.22614
-0.227103
-0.227806
-0.228263
-0.228461
-0.228428
-0.228134
-0.227621
-0.226845
-0.225857
-0.224602
-0.22314
-0.221405
-0.219462
-0.21724
-0.214809
-0.212091
-0.209162
-0.205942
-0.20251
-0.198786
-0.194855
-0.190637
-0.186222
-0.181535
-0.17667
-0.171559
-0.166297
-0.160826
-0.155242
-0.149463
-0.143575
-0.137535
-0.131056
-0.12412
-0.116511
-0.108291
-0.0992146
-0.089571
-0.0791451
-0.0684
-0.0573053
-0.0463516
-0.0356381
-0.0255101
-0.016099
-0.00753814
-0.00010272
0.00627366
0.0110947
0.0146342
0.0164128
0.017097
0.0164226
0.0155531
0.0147708
0.032864
0.0340355
0.0371033
0.0381584
0.0388753
0.0364322
0.0329815
0.026562
0.0191888
0.00958508
-0.000681648
-0.0123746
-0.0247795
-0.0375313
-0.0511433
-0.0638068
-0.0771866
-0.0886634
-0.100501
-0.110217
-0.119906
-0.127859
-0.135213
-0.141807
-0.147455
-0.153303
-0.158568
-0.164033
-0.168968
-0.174059
-0.178605
-0.183258
-0.18737
-0.191537
-0.19518
-0.198827
-0.201984
-0.205091
-0.207752
-0.210312
-0.21248
-0.214495
-0.216175
-0.217657
-0.21886
-0.219821
-0.220559
-0.221016
-0.2213
-0.221267
-0.221105
-0.220592
-0.219986
-0.218999
-0.217947
-0.216486
-0.214979
-0.213039
-0.211066
-0.208637
-0.206186
-0.20326
-0.200319
-0.19689
-0.193455
-0.189527
-0.185603
-0.181192
-0.176803
-0.171942
-0.167129
-0.161871
-0.156693
-0.151114
-0.14565
-0.139767
-0.134002
-0.127533
-0.120354
-0.112776
-0.103672
-0.0946564
-0.0839162
-0.073586
-0.0619372
-0.0509703
-0.039651
-0.0290825
-0.0192379
-0.00997368
-0.00217713
0.00511877
0.0104952
0.0151974
0.0175996
0.0193355
0.0187771
0.0180646
0.0159707
0.0151887
0.0334463
0.0349295
0.0380054
0.0400656
0.0408663
0.0399992
0.0367903
0.0320814
0.02497
0.0168564
0.00680506
-0.00387016
-0.0160935
-0.0284574
-0.0419511
-0.0548848
-0.0682247
-0.0804328
-0.092272
-0.102764
-0.112459
-0.12076
-0.128048
-0.134377
-0.139876
-0.145133
-0.150367
-0.155201
-0.160109
-0.164597
-0.169118
-0.173211
-0.177299
-0.180962
-0.184585
-0.187795
-0.190934
-0.19368
-0.196328
-0.198609
-0.200766
-0.202587
-0.204261
-0.205631
-0.206832
-0.207762
-0.208502
-0.209003
-0.209292
-0.209372
-0.209217
-0.208879
-0.208283
-0.207525
-0.206485
-0.205301
-0.203809
-0.202188
-0.200231
-0.19816
-0.195726
-0.193192
-0.190269
-0.187265
-0.183848
-0.180374
-0.176471
-0.17254
-0.168171
-0.163813
-0.15902
-0.154282
-0.149125
-0.144076
-0.138635
-0.133238
-0.127599
-0.121329
-0.114199
-0.106314
-0.0971958
-0.0875864
-0.0768449
-0.0660669
-0.0544626
-0.0434993
-0.0322932
-0.0222563
-0.012571
-0.00427087
0.00334611
0.00940353
0.0145736
0.0179549
0.0201771
0.0207481
0.0201299
0.0186867
0.0165872
0.0155768
0.0342175
0.0359214
0.0385795
0.0413176
0.0424954
0.042836
0.0404084
0.0370942
0.0308696
0.0239922
0.0147325
0.00491815
-0.00664717
-0.0186511
-0.0316665
-0.0447598
-0.0578784
-0.0706043
-0.0824478
-0.0934928
-0.103233
-0.111761
-0.118994
-0.125099
-0.130365
-0.135162
-0.140121
-0.144465
-0.149073
-0.153093
-0.157332
-0.160989
-0.16482
-0.16809
-0.171485
-0.174355
-0.1773
-0.179766
-0.182255
-0.184319
-0.186356
-0.188026
-0.189617
-0.190901
-0.192058
-0.192964
-0.193695
-0.194231
-0.194545
-0.194713
-0.194614
-0.194412
-0.1939
-0.19332
-0.19239
-0.191421