/*--------------------------------*- C++ -*----------------------------------*\
| =========                 |                                                 |
| \\      /  F ield         | OpenFOAM: The Open Source CFD Toolbox           |
|  \\    /   O peration     | Version:  v2106                                 |
|   \\  /    A nd           | Website:  www.openfoam.com                      |
|    \\/     M anipulation  |                                                 |
\*---------------------------------------------------------------------------*/
FoamFile
{
    version     2.0;
    format      ascii;
    arch        "LSB;label=32;scalar=64";
    class       volScalarField;
    location    "0";
    object      expGpCoeffs16;
}
// * * * * * * * * * * * * * * * * * * * * * * * * * * * * * * * * * * * * * //

dimensions      [0 0 0 0 0 0 0];

internalField   nonuniform List<scalar> 
8000
(
0.0403535
0.0445149
0.0526823
0.0650249
0.0802159
0.0971286
0.112639
0.126741
0.136792
0.143048
0.145057
0.142838
0.137133
0.128035
0.116794
0.103475
0.089601
0.0751471
0.0613432
0.048208
0.0361772
0.0253395
0.0153087
0.00618449
-0.00261588
-0.0110961
-0.0193947
-0.0274989
-0.035236
-0.0425858
-0.049339
-0.0554768
-0.0608143
-0.0653358
-0.0688955
-0.0714821
-0.073002
-0.0734494
-0.0727921
-0.0710302
-0.0681979
-0.0643016
-0.0594418
-0.0536307
-0.0470297
-0.0396566
-0.0317237
-0.0232527
-0.0144932
-0.00546931
0.00355017
0.0125392
0.0212282
0.0295927
0.0373812
0.0445716
0.0509487
0.0564943
0.0610446
0.064587
0.06702
0.0683372
0.0685056
0.0675257
0.0654341
0.0622373
0.0580372
0.0528463
0.0468222
0.0399817
0.032525
0.0244721
0.0160493
0.00727856
-0.00164255
-0.0106983
-0.0199654
-0.0294478
-0.0396404
-0.0504449
-0.0621973
-0.0748129
-0.0878801
-0.101382
-0.1142
-0.126356
-0.136492
-0.144546
-0.149404
-0.150984
-0.148612
-0.142275
-0.132401
-0.118748
-0.103814
-0.0876076
-0.0730589
-0.0612261
-0.0533736
-0.0493573
0.0400185
0.0441789
0.0523571
0.0646951
0.080156
0.0970716
0.11289
0.127007
0.137141
0.14341
0.145377
0.143166
0.137369
0.128275
0.11691
0.103591
0.0895926
0.0751366
0.0612587
0.0481223
0.0360833
0.025246
0.0152658
0.00614272
-0.00262591
-0.011105
-0.0194161
-0.0275192
-0.0352765
-0.0426253
-0.0493971
-0.0555342
-0.0608873
-0.0654081
-0.0689791
-0.0715654
-0.0730912
-0.0735385
-0.0728811
-0.0711194
-0.0682807
-0.064385
-0.0595128
-0.0537025
-0.0470838
-0.0397117
-0.0317571
-0.0232872
-0.0145033
-0.00548056
0.00356424
0.0125521
0.0212656
0.0296291
0.0374395
0.044629
0.0510239
0.0565688
0.0611316
0.0646735
0.0671129
0.0684298
0.0685981
0.0676183
0.0655201
0.0623237
0.0581115
0.0529212
0.0468802
0.0400407
0.0325638
0.024512
0.0160673
0.00729772
-0.00163873
-0.0106933
-0.0199361
-0.0294173
-0.0395661
-0.05037
-0.0621317
-0.0747481
-0.0878841
-0.101388
-0.114317
-0.126474
-0.13672
-0.14477
-0.14971
-0.151282
-0.14895
-0.142599
-0.132648
-0.118981
-0.103756
-0.0875463
-0.072747
-0.0609187
-0.0530494
-0.0490338
0.0396566
0.0438161
0.052006
0.0643389
0.0800912
0.09701
0.113161
0.127294
0.137517
0.143801
0.145722
0.143519
0.137624
0.128534
0.117036
0.103716
0.0895835
0.0751252
0.0611673
0.0480298
0.0359819
0.025145
0.0152195
0.00609762
-0.00263674
-0.0111147
-0.0194391
-0.0275412
-0.0353202
-0.042668
-0.0494599
-0.0555961
-0.060966
-0.0654863
-0.0690693
-0.0716553
-0.0731875
-0.0736347
-0.0729771
-0.0712158
-0.0683702
-0.064475
-0.0595895
-0.0537799
-0.0471423
-0.0397712
-0.0317931
-0.0233244
-0.0145142
-0.00549271
0.00357942
0.0125661
0.021306
0.0296684
0.0375024
0.0446909
0.0511051
0.0566492
0.0612255
0.064767
0.0672131
0.0685299
0.068698
0.0677183
0.0656131
0.0624171
0.0581916
0.0530021
0.0469429
0.0401043
0.0326057
0.024555
0.0160868
0.0073184
-0.00163461
-0.0106879
-0.0199045
-0.0293844
-0.0394858
-0.0502892
-0.0620608
-0.0746782
-0.0878883
-0.101394
-0.114444
-0.126601
-0.136965
-0.145012
-0.150041
-0.151604
-0.149314
-0.14295
-0.132914
-0.119233
-0.103693
-0.0874802
-0.0724102
-0.0605867
-0.0526992
-0.0486846
0.0392659
0.0434243
0.0516268
0.0639542
0.0800212
0.0969436
0.113454
0.127604
0.137923
0.144222
0.146094
0.143901
0.1379
0.128813
0.117172
0.103852
0.0895737
0.0751129
0.0610687
0.0479298
0.0358724
0.025036
0.0151695
0.00604892
-0.00264843
-0.0111251
-0.0194641
-0.0275649
-0.0353674
-0.0427141
-0.0495277
-0.055663
-0.0610511
-0.0655707
-0.0691668
-0.0717524
-0.0732914
-0.0737386
-0.0730809
-0.0713198
-0.0684668
-0.0645722
-0.0596723
-0.0538636
-0.0472055
-0.0398354
-0.0318321
-0.0233646
-0.014526
-0.00550583
0.00359582
0.0125811
0.0213496
0.0297107
0.0375704
0.0447578
0.0511927
0.0567361
0.0613269
0.0648679
0.0673214
0.068638
0.0688059
0.0678263
0.0657134
0.062518
0.0582782
0.0530895
0.0470106
0.040173
0.0326509
0.0246014
0.0161079
0.00734074
-0.00163017
-0.0106821
-0.0198704
-0.0293489
-0.0393992
-0.050202
-0.0619842
-0.0746027
-0.0878929
-0.1014
-0.114582
-0.126739
-0.13723
-0.145273
-0.150398
-0.151952
-0.149707
-0.143328
-0.133203
-0.119505
-0.103625
-0.0874089
-0.0720466
-0.0602282
-0.052321
-0.0483075
0.0388439
0.0430013
0.0512173
0.0634552
0.0799457
0.0968718
0.113771
0.127938
0.138362
0.144678
0.146496
0.144314
0.138197
0.129115
0.117319
0.103998
0.0895631
0.0750996
0.0609622
0.0478219
0.0357542
0.0249182
0.0151155
0.00599633
-0.00266106
-0.0111364
-0.019491
-0.0275905
-0.0354184
-0.0427639
-0.0496009
-0.0557352
-0.0611429
-0.0656618
-0.0692721
-0.0718572
-0.0734037
-0.0738508
-0.0731929
-0.0714321
-0.0685711
-0.0646771
-0.0597617
-0.053954
-0.0472737
-0.0399048
-0.0318741
-0.023408
-0.0145387
-0.00552
0.00361352
0.0125974
0.0213968
0.0297565
0.0376438
0.0448301
0.0512874
0.0568299
0.0614364
0.0649768
0.0674383
0.0687547
0.0689223
0.0679429
0.0658218
0.0626269
0.0583717
0.0531838
0.0470837
0.0402472
0.0326998
0.0246516
0.0161306
0.00736486
-0.00162536
-0.0106759
-0.0198335
-0.0293106
-0.0393056
-0.0501078
-0.0619016
-0.0745211
-0.0878979
-0.101408
-0.11473
-0.126887
-0.137516
-0.145554
-0.150783
-0.152328
-0.150132
-0.143737
-0.133514
-0.119799
-0.103551
-0.0873318
-0.0715704
-0.059841
-0.0519127
-0.0479002
0.0381898
0.0423333
0.0502554
0.0623996
0.0794973
0.0961773
0.113961
0.128004
0.138816
0.14512
0.1469
0.14472
0.1385
0.129441
0.11748
0.104165
0.0895517
0.0750853
0.0608473
0.0477053
0.0356265
0.0247911
0.0150572
0.00593954
-0.00263289
-0.0111196
-0.0194892
-0.0276
-0.0354523
-0.0428084
-0.0496679
-0.0558116
-0.0612381
-0.0657645
-0.0693885
-0.0719791
-0.0735327
-0.073983
-0.073325
-0.0715649
-0.0686962
-0.0648006
-0.0598703
-0.0540589
-0.0473573
-0.0399831
-0.0319262
-0.0234536
-0.0145547
-0.00552893
0.00363525
0.0126262
0.0214553
0.0298216
0.0377354
0.044927
0.051406
0.0569522
0.0615738
0.0651158
0.0675849
0.0689008
0.0690681
0.0680857
0.0659568
0.0627565
0.0584865
0.0532912
0.0471707
0.040325
0.0327532
0.0246946
0.0161472
0.00737015
-0.00163859
-0.0107006
-0.0197937
-0.0292692
-0.0392045
-0.0500061
-0.0618123
-0.0744331
-0.0879033
-0.101415
-0.114897
-0.127049
-0.137817
-0.145838
-0.151157
-0.152702
-0.150541
-0.144159
-0.133559
-0.119969
-0.102866
-0.0868919
-0.0705408
-0.0589089
-0.0512658
-0.0472674
0.0370603
0.0411856
0.0491002
0.0612598
0.0783361
0.0951593
0.11292
0.127255
0.138049
0.144742
0.146512
0.144736
0.138514
0.129797
0.11784
0.104747
0.090117
0.0756822
0.061449
0.0482046
0.036157
0.0251946
0.0155311
0.00630306
-0.00221573
-0.0108341
-0.0192021
-0.0274424
-0.0352932
-0.0427705
-0.0496287
-0.0558785
-0.061304
-0.0659162
-0.0695395
-0.0721909
-0.0737442
-0.0742277
-0.0735698
-0.0718145
-0.0689464
-0.0650284
-0.060099
-0.0542407
-0.0475403
-0.0400994
-0.0320439
-0.0234906
-0.0145934
-0.00547958
0.00368287
0.0127618
0.0215892
0.0300362
0.0379486
0.045207
0.0516848
0.057278
0.0618988
0.0654637
0.0679324
0.069244
0.0694114
0.0683966
0.0662681
0.063008
0.0587388
0.0534588
0.0473394
0.040388
0.0328176
0.0246375
0.0160917
0.00718388
-0.00182317
-0.0110191
-0.0200711
-0.0296578
-0.0395352
-0.0504525
-0.0622332
-0.0749384
-0.0884053
-0.101876
-0.115371
-0.127312
-0.138078
-0.145781
-0.151103
-0.152276
-0.150126
-0.143385
-0.132803
-0.118944
-0.101864
-0.0857591
-0.0694289
-0.0577871
-0.0501512
-0.0461724
0.0358407
0.0399462
0.0478529
0.0600289
0.0770822
0.0940599
0.111797
0.126446
0.137221
0.144334
0.146093
0.144753
0.138529
0.130181
0.118228
0.105375
0.0907543
0.0764048
0.0621822
0.0488942
0.036855
0.0257772
0.0161181
0.00675178
-0.00176526
-0.0105258
-0.0188921
-0.0272722
-0.0351215
-0.0427295
-0.0495863
-0.0559509
-0.0613753
-0.0660799
-0.0697025
-0.0724196
-0.0739725
-0.074492
-0.0738342
-0.0720842
-0.0692166
-0.0652743
-0.0603459
-0.0544369
-0.047738
-0.0402249
-0.0321711
-0.0235305
-0.0146351
-0.0054263
0.0037343
0.0129083
0.0217339
0.0302681
0.0381788
0.0455093
0.0519858
0.0576299
0.0622497
0.0658394
0.0683075
0.0696147
0.069782
0.0687324
0.0666042
0.0632796
0.0590113
0.0536397
0.0475215
0.0404559
0.0328871
0.024576
0.0160319
0.00698274
-0.00202249
-0.0113629
-0.0204131
-0.0301382
-0.0400117
-0.0510387
-0.0628123
-0.0755532
-0.0890113
-0.102396
-0.115883
-0.127596
-0.138359
-0.145719
-0.151045
-0.151816
-0.149678
-0.142549
-0.131987
-0.117837
-0.100781
-0.084536
-0.0682283
-0.0565759
-0.0489477
-0.0449899
0.0345236
0.0386079
0.046506
0.0586998
0.0757281
0.0928729
0.110583
0.125572
0.136326
0.143894
0.145641
0.144771
0.138544
0.130595
0.118647
0.106053
0.0914425
0.077185
0.062974
0.0496389
0.0376088
0.0264064
0.0167519
0.00723633
-0.00127883
-0.0101928
-0.0185573
-0.0270884
-0.034936
-0.0426853
-0.0495405
-0.056029
-0.0614522
-0.0662567
-0.0698785
-0.0726665
-0.0742191
-0.0747773
-0.0741197
-0.0723753
-0.0695084
-0.0655398
-0.0606125
-0.0546489
-0.0479514
-0.0403605
-0.0323084
-0.0235736
-0.0146802
-0.00536877
0.00378983
0.0130664
0.0218901
0.0305184
0.0384274
0.0458358
0.0523109
0.0580099
0.0626287
0.066245
0.0687126
0.0700149
0.0701822
0.0690949
0.0669672
0.0635729
0.0593055
0.053835
0.0477182
0.0405293
0.0329622
0.0245095
0.0159673
0.00676553
-0.00223772
-0.0117342
-0.0207824
-0.030657
-0.0405263
-0.0516718
-0.0634376
-0.076217
-0.0896656
-0.102956
-0.116436
-0.127903
-0.138664
-0.145652
-0.150983
-0.151319
-0.149193
-0.141646
-0.131105
-0.116642
-0.0996123
-0.0832151
-0.0669319
-0.0552679
-0.047648
-0.0437131
0.0331015
0.0371627
0.0450515
0.0572646
0.0742659
0.091591
0.109273
0.124629
0.135361
0.143418
0.145152
0.144792
0.138561
0.131043
0.1191
0.106786
0.0921857
0.0780276
0.063829
0.0504431
0.0384227
0.0270858
0.0174363
0.00775956
-0.000753556
-0.00983329
-0.0181958
-0.02689
-0.0347357
-0.0426375
-0.0494912
-0.0561133
-0.0615353
-0.0664477
-0.0700686
-0.0729331
-0.0744854
-0.0750854
-0.0744279
-0.0726897
-0.0698234
-0.0658266
-0.0609004
-0.0548777
-0.0481818
-0.0405068
-0.0324567
-0.0236202
-0.0147289
-0.00530664
0.00384979
0.0132371
0.0220587
0.0307887
0.0386959
0.0461884
0.0526619
0.0584202
0.0630379
0.0666831
0.0691501
0.0704472
0.0706144
0.0694863
0.0673592
0.0638895
0.0596232
0.054046
0.0479306
0.0406086
0.0330432
0.0244377
0.0158975
0.00653099
-0.00247013
-0.0121351
-0.0211811
-0.0312171
-0.0410819
-0.0523554
-0.0641128
-0.0769338
-0.0903722
-0.103562
-0.117033
-0.128234
-0.138992
-0.14558
-0.150916
-0.150782
-0.148671
-0.140671
-0.130153
-0.115352
-0.0983502
-0.0817888
-0.0655319
-0.0538555
-0.0462446
-0.0423343
0.0315657
0.0356021
0.0434809
0.0557148
0.072687
0.0902068
0.107858
0.12361
0.134318
0.142905
0.144625
0.144813
0.13858
0.131526
0.119589
0.107577
0.0929882
0.0789374
0.0647522
0.0513114
0.0393016
0.0278195
0.0181753
0.00832456
-0.000186347
-0.00944507
-0.0178054
-0.0266757
-0.0345194
-0.0425859
-0.0494378
-0.0562044
-0.061625
-0.0666539
-0.0702738
-0.073221
-0.0747729
-0.0754182
-0.0747608
-0.0730292
-0.0701636
-0.0661362
-0.0612113
-0.0551249
-0.0484307
-0.0406649
-0.0326168
-0.0236705
-0.0147814
-0.00523955
0.00391454
0.0134215
0.0222408
0.0310806
0.0389858
0.0465691
0.053041
0.0588632
0.0634798
0.0671561
0.0696225
0.0709139
0.0710811
0.0699091
0.0677824
0.0642315
0.0599662
0.0542737
0.0481599
0.0406942
0.0331307
0.0243601
0.0158222
0.00627772
-0.0027211
-0.012568
-0.0216117
-0.031822
-0.0416819
-0.0530937
-0.064842
-0.0777078
-0.0911352
-0.104215
-0.117678
-0.128592
-0.139347
-0.145502
-0.150843
-0.150202
-0.148106
-0.139619
-0.129125
-0.113959
-0.0969873
-0.0802486
-0.0640202
-0.0523303
-0.0447291
-0.0408454
0.0299074
0.0339169
0.0417849
0.0540412
0.0709821
0.0887121
0.10633
0.12251
0.133192
0.14235
0.144055
0.144837
0.138599
0.132048
0.120117
0.108431
0.0938548
0.0799199
0.0657492
0.0522491
0.0402507
0.0286117
0.0189734
0.00893468
0.000426149
-0.00902584
-0.0173839
-0.0264443
-0.0342859
-0.0425302
-0.0493802
-0.0563028
-0.0617218
-0.0668765
-0.0704955
-0.073532
-0.0750834
-0.0757775
-0.0751203
-0.0733958
-0.070531
-0.0664706
-0.0615471
-0.0553917
-0.0486994
-0.0408356
-0.0327897
-0.0237248
-0.0148382
-0.0051671
0.00398446
0.0136206
0.0224375
0.0313958
0.0392988
0.0469802
0.0534503
0.0593417
0.063957
0.0676669
0.0701326
0.0714179
0.071585
0.0703655
0.0682395
0.0646008
0.0603367
0.0545197
0.0484076
0.0407866
0.0332252
0.0242764
0.0157408
0.00600423
-0.00299211
-0.0130355
-0.0220767
-0.0324752
-0.0423298
-0.0538908
-0.0656294
-0.0785436
-0.0919591
-0.104921
-0.118374
-0.128978
-0.13973
-0.145417
-0.150764
-0.149576
-0.147497
-0.138482
-0.128015
-0.112454
-0.0955155
-0.0785854
-0.0623878
-0.0506833
-0.0430926
-0.0392376
0.0276044
0.0316044
0.0389805
0.0514125
0.0681166
0.0862286
0.103872
0.120484
0.131511
0.141103
0.143192
0.144416
0.138629
0.132437
0.120891
0.109453
0.0950412
0.081253
0.0670486
0.0535761
0.0414616
0.0297305
0.0200099
0.00981361
0.00125639
-0.0083286
-0.0168228
-0.0260141
-0.0339795
-0.0423462
-0.0493084
-0.0563383
-0.0618522
-0.0670936
-0.0707855
-0.0738836
-0.0754832
-0.076211
-0.0755757
-0.0738562
-0.0709873
-0.0669044
-0.0619528
-0.0557504
-0.0490095
-0.0410785
-0.0329686
-0.0238224
-0.0148621
-0.00510246
0.00412608
0.0138507
0.0227412
0.0317808
0.0397477
0.0474963
0.0540148
0.0599535
0.0645972
0.0683301
0.0708007
0.0720815
0.0722281
0.0709759
0.0688034
0.0651043
0.0607692
0.0548665
0.0486616
0.0409337
0.0332618
0.0241903
0.0155314
0.00566272
-0.00346922
-0.0136478
-0.0227565
-0.0333122
-0.0432485
-0.0549028
-0.0667397
-0.0796306
-0.0930624
-0.105886
-0.119176
-0.129545
-0.139939
-0.14529
-0.150229
-0.148631
-0.146204
-0.136789
-0.126003
-0.110035
-0.0930809
-0.0757839
-0.0598123
-0.0479341
-0.0408462
-0.0370016
0.0245543
0.0285497
0.035897
0.0482868
0.0645744
0.0825966
0.100206
0.116714
0.1287
0.138214
0.14177
0.142955
0.138675
0.132479
0.122208
0.110793
0.0972077
0.0834563
0.0695012
0.0560615
0.0437144
0.0320024
0.0217529
0.0115621
0.00248008
-0.00710182
-0.0160117
-0.0252
-0.0335437
-0.0419077
-0.0492122
-0.0562399
-0.062043
-0.0672827
-0.071197
-0.0742941
-0.0760398
-0.0767674
-0.0761976
-0.0744787
-0.0715956
-0.067514
-0.0624746
-0.0562741
-0.0493829
-0.0414545
-0.0331466
-0.0240034
-0.0148155
-0.00505899
0.0044071
0.0141286
0.0232463
0.032283
0.0404472
0.0481933
0.054862
0.0607988
0.0655308
0.0692625
0.0717493
0.0730297
0.0731143
0.0718624
0.0695488
0.0658508
0.0612991
0.0553983
0.0489097
0.0411844
0.0331743
0.0241058
0.01507
0.00520445
-0.00434188
-0.0145172
-0.0241358
-0.0346864
-0.0451259
-0.056764
-0.0688093
-0.0816729
-0.0948533
-0.107648
-0.120159
-0.130512
-0.139726
-0.145085
-0.148634
-0.147078
-0.143298
-0.133961
-0.122294
-0.106429
-0.0895284
-0.0723195
-0.0567471
-0.0449103
-0.0378778
-0.0340377
0.0211506
0.0251412
0.0318568
0.0442059
0.0606551
0.0785825
0.0962468
0.112642
0.125665
0.135095
0.140234
0.141377
0.138724
0.132526
0.12363
0.112241
0.0995472
0.0858355
0.0721496
0.0587454
0.0461471
0.0344558
0.023635
0.0134501
0.00380148
-0.0057771
-0.0151358
-0.024321
-0.0330731
-0.0414342
-0.0491083
-0.0561336
-0.062249
-0.0674868
-0.0716414
-0.0747373
-0.0766409
-0.0773682
-0.0768691
-0.0751508
-0.0722524
-0.0681722
-0.063038
-0.0568397
-0.0497861
-0.0418605
-0.0333388
-0.0241988
-0.0147652
-0.00501206
0.00471055
0.0144287
0.0237917
0.0328252
0.0412026
0.048946
0.0557767
0.0617114
0.0665389
0.0702693
0.0727736
0.0740536
0.0740713
0.0728198
0.0703536
0.066657
0.0618713
0.0559725
0.0491777
0.041455
0.0330798
0.0240145
0.0145717
0.0047096
-0.00528421
-0.015456
-0.0256253
-0.0361702
-0.0471533
-0.0587737
-0.0710441
-0.0838781
-0.0967871
-0.10955
-0.12122
-0.131556
-0.139495
-0.144864
-0.146912
-0.145401
-0.140159
-0.130907
-0.118288
-0.102535
-0.0856017
-0.0684858
-0.0527706
-0.0409739
-0.0345669
-0.0307315
0.0157055
0.0196886
0.0262006
0.0384727
0.0558824
0.0736866
0.0931729
0.109484
0.124156
0.133553
0.140349
0.141498
0.140236
0.134071
0.126024
0.114684
0.102266
0.0886018
0.0747576
0.0613877
0.0483946
0.0367223
0.0254721
0.0152933
0.00517819
-0.00439678
-0.0143147
-0.0234965
-0.0328099
-0.0411679
-0.0493523
-0.0563749
-0.0629206
-0.0681565
-0.0726376
-0.0757324
-0.0778416
-0.0785687
-0.0781456
-0.0764279
-0.0734756
-0.069397
-0.0640878
-0.0578919
-0.0505594
-0.0426367
-0.0337563
-0.0246198
-0.0147772
-0.00502779
0.00512079
0.0148353
0.0246073
0.0336375
0.042374
0.0501146
0.0572252
0.0631577
0.0681619
0.0718908
0.0744513
0.0757309
0.0756754
0.0744244
0.0717554
0.0680601
0.06295
0.0570535
0.0498288
0.042109
0.0332212
0.0241592
0.0141486
0.00429021
-0.00627876
-0.0164467
-0.0271071
-0.0376462
-0.0490605
-0.0606644
-0.0732965
-0.0861012
-0.0991279
-0.111851
-0.123229
-0.133524
-0.140653
-0.145997
-0.146754
-0.145245
-0.138476
-0.129262
-0.115116
-0.0994473
-0.0808107
-0.0638157
-0.0472237
-0.0355014
-0.0292884
-0.0254603
0.00984244
0.0138202
0.0203272
0.0326598
0.0507276
0.0684805
0.0898624
0.106086
0.122688
0.132051
0.140608
0.141766
0.141958
0.135832
0.128695
0.117409
0.105234
0.0916202
0.0775215
0.0641886
0.0507328
0.039081
0.0274193
0.0172472
0.00666212
-0.00290897
-0.0134348
-0.0226128
-0.032539
-0.0408936
-0.0496349
-0.0566546
-0.06367
-0.0689038
-0.0737411
-0.0768346
-0.0791679
-0.0798947
-0.0795536
-0.0778366
-0.0748241
-0.0707471
-0.0652452
-0.0590517
-0.0514125
-0.043493
-0.0342184
-0.0250856
-0.0147938
-0.00504834
0.0055682
0.0152787
0.0255003
0.0345268
0.0436582
0.0513956
0.0588142
0.0647443
0.0699431
0.0736705
0.0762938
0.0775728
0.0774383
0.0761878
0.0732976
0.0696038
0.0641396
0.0582455
0.0505513
0.0428347
0.0333869
0.0243286
0.0136979
0.00384351
-0.00735147
-0.0175153
-0.0286835
-0.0392164
-0.0510547
-0.0626407
-0.0756959
-0.0884689
-0.101696
-0.114376
-0.125482
-0.135735
-0.14199
-0.147306
-0.146712
-0.145203
-0.136812
-0.127636
-0.111701
-0.0961216
-0.0757138
-0.0587723
-0.0415885
-0.0298162
-0.0236073
-0.0197845
0.00457412
0.00843194
0.0149065
0.0271656
0.0451172
0.0632895
0.0846538
0.101853
0.11863
0.129426
0.138116
0.140903
0.141232
0.136626
0.129649
0.119499
0.107413
0.0943879
0.0802808
0.0670155
0.0534967
0.0415786
0.029857
0.0192667
0.00864051
-0.00143634
-0.0120051
-0.0216874
-0.0316572
-0.0404875
-0.0492685
-0.0567106
-0.0637596
-0.0693406
-0.0742037
-0.0775527
-0.0799025
-0.0807825
-0.0804479
-0.0787782
-0.0757622
-0.0716299
-0.0661152
-0.0597745
-0.0521145
-0.0439721
-0.0346707
-0.025261
-0.0149386
-0.00488744
0.00576118
0.0157794
0.0260317
0.0353409
0.0444993
0.0524695
0.0599091
0.0660004
0.0712122
0.0750125
0.0776395
0.0788918
0.0787513
0.0773703
0.0744641
0.0705383
0.0650488
0.0588299
0.0511023
0.0429828
0.0334954
0.0239755
0.013301
0.00294913
-0.00828994
-0.0189602
-0.0301834
-0.0411347
-0.0530418
-0.0648822
-0.0779992
-0.090695
-0.103929
-0.116044
-0.127066
-0.136256
-0.142365
-0.146278
-0.145565
-0.142559
-0.134053
-0.123563
-0.107472
-0.0910028
-0.0706188
-0.0533083
-0.0362378
-0.024559
-0.0183816
-0.0146833
-0.00111482
0.00261354
0.00905291
0.0212327
0.0390589
0.0576842
0.0788984
0.0972788
0.113934
0.126487
0.135103
0.13987
0.140172
0.137401
0.130436
0.121653
0.109604
0.0972807
0.0832174
0.0700197
0.0565348
0.0442628
0.0325573
0.0214294
0.0108084
0.000142636
-0.0104212
-0.0206906
-0.0306556
-0.0400399
-0.0488167
-0.0567504
-0.0637961
-0.0697814
-0.0746421
-0.0782886
-0.0806373
-0.0816956
-0.0813612
-0.0797463
-0.0767318
-0.072535
-0.0670229
-0.0605105
-0.0528541
-0.0444522
-0.0351552
-0.0254231
-0.0151055
-0.00469835
0.00594523
0.0163218
0.0265692
0.0362079
0.0453619
0.0536034
0.0610394
0.0673185
0.0725279
0.076413
0.0790388
0.0802602
0.0801197
0.0785868
0.075682
0.0714861
0.0659991
0.059402
0.0516781
0.0430895
0.0336066
0.0235493
0.0128798
0.00194883
-0.00928492
-0.0205449
-0.0317627
-0.0432514
-0.0551447
-0.0673266
-0.0804159
-0.0930356
-0.106235
-0.117678
-0.128673
-0.136584
-0.142691
-0.144907
-0.144229
-0.139402
-0.130975
-0.118871
-0.102903
-0.085353
-0.0651171
-0.0474081
-0.0304599
-0.018882
-0.0127387
-0.00917478
-0.00725796
-0.00366941
0.00273201
0.0148261
0.0325169
0.0516312
0.0726835
0.0923395
0.108862
0.123313
0.131849
0.138754
0.139027
0.138238
0.131286
0.123979
0.11197
0.100405
0.0863884
0.0732638
0.0598155
0.0471613
0.0354733
0.0237647
0.0131493
0.00184768
-0.00871072
-0.0196141
-0.0295741
-0.0395565
-0.0483288
-0.0567935
-0.0638355
-0.0702574
-0.0751156
-0.0790833
-0.0814308
-0.0826816
-0.0823473
-0.0807917
-0.0777788
-0.0735124
-0.0680031
-0.0613053
-0.0536528
-0.0449706
-0.0356783
-0.0255981
-0.0152858
-0.00449415
0.00614398
0.0169075
0.0271497
0.037144
0.0462934
0.0548277
0.0622599
0.0687419
0.0739486
0.0779253
0.0805498
0.0817377
0.0815973
0.0799004
0.0769971
0.0725094
0.0670252
0.0600198
0.0522999
0.0432047
0.0337267
0.0230891
0.0124251
0.000868656
-0.0103593
-0.022256
-0.033468
-0.0455371
-0.0574154
-0.0699661
-0.0830256
-0.095563
-0.108726
-0.119441
-0.130409
-0.136939
-0.143044
-0.143427
-0.142787
-0.135993
-0.127651
-0.113803
-0.0979682
-0.0792521
-0.059176
-0.0410367
-0.0242207
-0.0127518
-0.00664528
-0.00322648
-0.0130291
-0.00949532
-0.00270115
0.00916802
0.0259929
0.0450747
0.0655288
0.0855811
0.102581
0.117725
0.127402
0.135128
0.136885
0.136885
0.131506
0.124807
0.114121
0.102886
0.0896467
0.0765709
0.0633137
0.0504949
0.0385436
0.0265733
0.0155604
0.00401467
-0.00688955
-0.0180365
-0.0283122
-0.0385244
-0.0475901
-0.0562589
-0.063559
-0.0701489
-0.0752194
-0.079311
-0.0818177
-0.0831432
-0.0829114
-0.0813795
-0.0784122
-0.0741202
-0.0686035
-0.0618358
-0.0541299
-0.0453413
-0.0359597
-0.0257472
-0.0153216
-0.00438382
0.00637794
0.0172886
0.0276507
0.0377804
0.0470324
0.055678
0.0631833
0.0697421
0.0749818
0.0789929
0.0816025
0.0827771
0.0825691
0.0808088
0.0777838
0.0731838
0.0675255
0.0603632
0.0524215
0.0431319
0.0333923
0.0225321
0.011577
-0.000219312
-0.0117719
-0.0239129
-0.0355002
-0.0478312
-0.0599579
-0.0726737
-0.085556
-0.0980509
-0.110494
-0.120901
-0.130655
-0.136624
-0.141293
-0.140955
-0.13896
-0.131418
-0.122035
-0.107559
-0.0913072
-0.0722364
-0.052763
-0.0346689
-0.0186886
-0.00743808
-0.000992286
0.00237041
-0.0197273
-0.0162027
-0.0102201
0.00156118
0.0183782
0.0372741
0.0578548
0.0776928
0.0958656
0.110833
0.122735
0.130346
0.134737
0.134681
0.131794
0.125095
0.116377
0.10518
0.0930635
0.0800337
0.0669891
0.0542024
0.0417483
0.0297892
0.018076
0.00653718
-0.00499777
-0.016138
-0.0270123
-0.0372185
-0.0468395
-0.0555032
-0.063289
-0.069875
-0.07534
-0.0794292
-0.0822238
-0.0835485
-0.0834898
-0.0819588
-0.0790491
-0.0747597
-0.0691925
-0.0624287
-0.0545785
-0.0457952
-0.0361957
-0.0259893
-0.0152976
-0.0043663
0.00668202
0.0175862
0.0282261
0.0383496
0.0478425
0.0564829
0.0641664
0.0707214
0.0760554
0.0800641
0.0826684
0.0838423
0.0835202
0.081761
0.0785107
0.0739134
0.0679235
0.0607655
0.0523973
0.0431132
0.0328696
0.0220158
0.0105011
-0.00128817
-0.013444
-0.0255776
-0.0378277
-0.0501484
-0.0627531
-0.0754432
-0.0881369
-0.100597
-0.112001
-0.122385
-0.130328
-0.136309
-0.138694
-0.13842
-0.134011
-0.126589
-0.115168
-0.100868
-0.0835608
-0.0647016
-0.0451555
-0.0272435
-0.0113084
-0.000143491
0.00550158
0.00885532
-0.0287996
-0.0252971
-0.0198787
-0.00814032
0.00894712
0.0277102
0.0502957
0.0699195
0.0906154
0.105452
0.120037
0.127585
0.134645
0.134574
0.133921
0.127264
0.119858
0.10872
0.0969551
0.0839773
0.0706508
0.0578969
0.0449985
0.0330513
0.0207405
0.00920808
-0.00313836
-0.0142725
-0.0259825
-0.0361832
-0.0465782
-0.0552372
-0.0636931
-0.0702757
-0.0762716
-0.0803588
-0.0835193
-0.0848436
-0.0849709
-0.0834412
-0.0805358
-0.0762492
-0.0705149
-0.0637554
-0.0555892
-0.0468112
-0.0367792
-0.026579
-0.0153788
-0.00445406
0.00713312
0.0180307
0.0291926
0.03931
0.0492618
0.0578971
0.0659351
0.072486
0.0780361
0.0820423
0.0846998
0.0858728
0.0854278
0.0836694
0.0801188
0.0755242
0.0690674
0.0619134
0.0529334
0.0436546
0.0326851
0.0218375
0.00952077
-0.00226191
-0.0152245
-0.0273514
-0.0402504
-0.0525599
-0.065644
-0.0783072
-0.0912587
-0.103678
-0.114718
-0.125058
-0.131744
-0.1377
-0.138004
-0.137761
-0.130905
-0.123556
-0.109684
-0.0955199
-0.0758886
-0.0572426
-0.0358445
-0.0180676
-0.00193781
0.00917628
0.0142753
0.017607
-0.0367839
-0.0335594
-0.0281906
-0.0169778
-7.78634e-05
0.0185357
0.040875
0.0612636
0.0817866
0.0983655
0.112823
0.122834
0.129824
0.132505
0.131878
0.127718
0.120391
0.111043
0.0993241
0.087214
0.0738967
0.0612182
0.0483019
0.0359718
0.0236393
0.0115395
-0.000798291
-0.0125232
-0.0242251
-0.0349974
-0.0453852
-0.054569
-0.063019
-0.0700548
-0.0760466
-0.0804959
-0.0836541
-0.0852363
-0.0853636
-0.0839814
-0.0810781
-0.0768303
-0.0711
-0.0642794
-0.0561188
-0.0471954
-0.0371704
-0.0267614
-0.0155689
-0.00439713
0.00718196
0.0183376
0.0294917
0.0398505
0.0497953
0.0586288
0.0666612
0.0733443
0.0788905
0.0829443
0.0856
0.0867234
0.0862787
0.0843675
0.0808194
0.0759693
0.069517
0.0620123
0.0530387
0.0433273
0.0323655
0.0210219
0.00871379
-0.00360578
-0.0165594
-0.0292255
-0.0421517
-0.0548413
-0.0679521
-0.080558
-0.0935094
-0.105122
-0.11613
-0.124812
-0.131438
-0.135098
-0.135394
-0.132636
-0.125862
-0.116274
-0.102536
-0.086802
-0.0673465
-0.0480443
-0.0268879
-0.00931064
0.00663688
0.0172076
0.0222587
0.0253083
-0.0454057
-0.0424813
-0.0371239
-0.0265209
-0.00982342
0.00862879
0.0307022
0.0519165
0.0721899
0.0907047
0.104971
0.117704
0.124571
0.13027
0.129588
0.12818
0.120853
0.113474
0.10179
0.0906327
0.0773548
0.0647501
0.0518574
0.0390925
0.0267694
0.0140571
0.00172861
-0.0106343
-0.0223273
-0.033717
-0.0440969
-0.0538474
-0.0622911
-0.0698163
-0.0758035
-0.0806439
-0.0837998
-0.0856604
-0.0857876
-0.0845648
-0.0816636
-0.0774577
-0.0717318
-0.0648452
-0.0566908
-0.0476103
-0.0375928
-0.0269583
-0.0157743
-0.00433566
0.00723471
0.018669
0.0298147
0.040434
0.0503714
0.059419
0.0674454
0.0742711
0.0798132
0.0839184
0.086572
0.0876419
0.0871975
0.0851213
0.0815759
0.07645
0.0700026
0.0621192
0.0531523
0.0429738
0.0320203
0.0201412
0.00784238
-0.00505694
-0.0180008
-0.0312493
-0.0441656
-0.0572866
-0.0703782
-0.0829328
-0.095856
-0.106587
-0.117575
-0.124436
-0.131078
-0.132209
-0.132575
-0.127058
-0.120416
-0.108352
-0.0948087
-0.0773296
-0.0581224
-0.0381116
-0.0172162
0.000145441
0.0158962
0.0258405
0.0308796
0.0336245
-0.0530433
-0.0501765
-0.0443148
-0.0339453
-0.0188998
-0.000775875
0.0194853
0.0406109
0.0606957
0.0793754
0.0949072
0.108009
0.117115
0.123299
0.125404
0.124486
0.119977
0.112985
0.103501
0.092558
0.0804564
0.0678827
0.0551216
0.0422654
0.0296188
0.0167975
0.00420198
-0.00827501
-0.0202143
-0.0317148
-0.0423419
-0.0521945
-0.0608797
-0.0684937
-0.0747113
-0.0796235
-0.082994
-0.0849068
-0.0852296
-0.0840382
-0.0813116
-0.0771166
-0.0715432
-0.0646486
-0.0566249
-0.0475204
-0.0376131
-0.0269424
-0.0158502
-0.00436803
0.00712633
0.0186065
0.0296881
0.0403504
0.0502319
0.0593145
0.0672889
0.0741375
0.0796272
0.0837394
0.0863357
0.0873947
0.0868838
0.0847772
0.0811523
0.0759768
0.0694333
0.0614826
0.0524004
0.0421391
0.0310496
0.0190758
0.00662014
-0.00638175
-0.0195189
-0.0328702
-0.0460321
-0.0592446
-0.0721879
-0.0847267
-0.0965754
-0.107124
-0.116112
-0.122633
-0.126725
-0.127423
-0.125269
-0.119327
-0.110662
-0.0982807
-0.0836161
-0.0660099
-0.0470587
-0.0271547
-0.00805503
0.00897994
0.023131
0.0328495
0.0383174
0.0410045
-0.0638374
-0.060985
-0.0568925
-0.0465961
-0.0318912
-0.0139991
0.00729743
0.0280865
0.0499609
0.068365
0.0865936
0.0994979
0.111978
0.118045
0.123618
0.122659
0.120993
0.114015
0.106266
0.0953614
0.0838776
0.0713372
0.0584749
0.0456344
0.0325453
0.0197354
0.00652145
-0.00594456
-0.018538
-0.0300284
-0.0412843
-0.0511282
-0.060385
-0.0679923
-0.0746962
-0.0796041
-0.0833541
-0.0852652
-0.0858468
-0.0846565
-0.0820627
-0.0778714
-0.0723083
-0.0654198
-0.057296
-0.0481995
-0.0381013
-0.02744
-0.0160917
-0.00461962
0.007166
0.0186361
0.0300126
0.0406654
0.0508135
0.0598881
0.0680719
0.0749145
0.0805317
0.0846403
0.0872638
0.0883218
0.0877267
0.085622
0.0817979
0.076627
0.0697741
0.0618304
0.0523405
0.0420882
0.0305111
0.0185478
0.00554806
-0.00744239
-0.0211372
-0.0344769
-0.048096
-0.0612941
-0.0743792
-0.0868936
-0.0981731
-0.108699
-0.116068
-0.122594
-0.124055
-0.124813
-0.119486
-0.113675
-0.101956
-0.0897799
-0.0726928
-0.0553624
-0.0348176
-0.0152446
0.00474933
0.0215574
0.0352798
0.0449222
0.0486823
0.0513557
-0.0731488
-0.0707266
-0.0666597
-0.0575026
-0.043077
-0.0263466
-0.00540701
0.0150414
0.0367251
0.0560639
0.0742037
0.0892599
0.101747
0.110815
0.11652
0.118843
0.117349
0.113247
0.105617
0.0966494
0.0852094
0.0735499
0.0606646
0.0479808
0.0348293
0.0218984
0.00865894
-0.00398824
-0.0166103
-0.028306
-0.0395902
-0.049656
-0.0589391
-0.0667771
-0.0735042
-0.0786442
-0.0824131
-0.0845509
-0.0851466
-0.084171
-0.0815862
-0.0775926
-0.0720334
-0.0653216
-0.0571969
-0.0482535
-0.0381504
-0.0276171
-0.0162609
-0.00489185
0.00690335
0.0182941
0.0296806
0.0402753
0.0504326
0.0594668
0.0676577
0.0744735
0.0800947
0.0841857
0.0868094
0.0878539
0.0872546
0.0851359
0.0813031
0.076113
0.069247
0.0612746
0.0517678
0.0414742
0.029877
0.0178571
0.00483509
-0.00822828
-0.0219451
-0.0353457
-0.0490308
-0.0620719
-0.075192
-0.0868959
-0.0981467
-0.106896
-0.114171
-0.118073
-0.119394
-0.117178
-0.111754
-0.103247
-0.0915488
-0.0774705
-0.0604919
-0.0423941
-0.02205
-0.00290435
0.0167368
0.0323537
0.0458056
0.054301
0.0580363
0.0602754
-0.0822736
-0.0801695
-0.0756731
-0.0674396
-0.0541195
-0.0384528
-0.0189174
0.00114262
0.0220026
0.0419951
0.0599797
0.0766707
0.0895739
0.100968
0.107564
0.112453
0.112151
0.110313
0.103859
0.0964384
0.0858583
0.0749213
0.0624419
0.0498958
0.0368799
0.0238588
0.0107651