/*--------------------------------*- C++ -*----------------------------------*\
| =========                 |                                                 |
| \\      /  F ield         | OpenFOAM: The Open Source CFD Toolbox           |
|  \\    /   O peration     | Version:  v2106                                 |
|   \\  /    A nd           | Website:  www.openfoam.com                      |
|    \\/     M anipulation  |                                                 |
\*---------------------------------------------------------------------------*/
FoamFile
{
    version     2.0;
    format      ascii;
    arch        "LSB;label=32;scalar=64";
    class       volScalarField;
    location    "0";
    object      expGpCoeffs24;
}
// * * * * * * * * * * * * * * * * * * * * * * * * * * * * * * * * * * * * * //

dimensions      [0 0 0 0 0 0 0];

internalField   nonuniform List<scalar> 
8000
(
0.0170877
0.0181996
0.0200739
0.0225613
0.0251208
0.0276442
0.0297288
0.031423
0.0324752
0.0329294
0.0327886
0.0320572
0.0308518
0.0291867
0.0272753
0.0251289
0.0230377
0.021
0.0192509
0.0177956
0.016734
0.0160779
0.0157405
0.0157278
0.0158051
0.0159623
0.0160367
0.0160231
0.0158888
0.0156339
0.0152605
0.0147692
0.0141706
0.0134663
0.0126748
0.0117984
0.0108623
0.0098693
0.00884973
0.00780658
0.00677288
0.00575176
0.00477632
0.00384951
0.00300178
0.00223576
0.00157661
0.00102632
0.000602517
0.00030643
0.000146535
0.000123186
0.000235005
0.000481427
0.000851496
0.00134382
0.00193906
0.00263512
0.00340622
0.00424979
0.00513604
0.00606206
0.00699656
0.00793667
0.00885204
0.00973998
0.0105733
0.0113497
0.012047
0.0126632
0.0131826
0.0136039
0.0139184
0.0141253
0.0142466
0.0142861
0.0143828
0.0145462
0.0149886
0.0157038
0.0167785
0.0182016
0.019886
0.0218268
0.023804
0.0258195
0.0275989
0.029131
0.030215
0.0308378
0.0308967
0.0303884
0.0293225
0.0276577
0.0256307
0.0231925
0.0207099
0.0182786
0.0164333
0.0153304
0.0169982
0.0181098
0.020052
0.022539
0.0251363
0.0276609
0.0297748
0.0314712
0.0325251
0.0329811
0.0328328
0.0321024
0.0308838
0.0292189
0.0272846
0.0251378
0.0230225
0.0209842
0.0192212
0.0177655
0.0167001
0.0160438
0.0157226
0.0157099
0.0158093
0.0159664
0.0160464
0.0160327
0.0158986
0.0156438
0.0152697
0.0147784
0.0141785
0.0134743
0.0126807
0.0118044
0.0108657
0.00987281
0.00885026
0.00780725
0.00677044
0.00574945
0.00477102
0.00384433
0.00299399
0.00222808
0.00156691
0.00101669
0.000591657
0.000295608
0.000135373
0.000112027
0.000224419
0.000470809
0.000842293
0.00133455
0.00193191
0.00262788
0.00340158
0.00424504
0.00513415
0.00606005
0.00699743
0.00793743
0.00885549
0.00974332
0.010579
0.0113553
0.0120543
0.0126705
0.0131911
0.0136123
0.0139272
0.0141342
0.0142512
0.0142907
0.0143682
0.0145316
0.0149588
0.0156741
0.0167515
0.0181751
0.0198722
0.0218135
0.0238136
0.0258294
0.0276305
0.0291623
0.0302587
0.0308805
0.0309454
0.0304354
0.0293668
0.0276999
0.0256467
0.0232074
0.0206908
0.0182598
0.0163442
0.0152416
0.0169015
0.0180129
0.0200284
0.022515
0.0251531
0.0276789
0.0298243
0.0315232
0.0325791
0.0330369
0.0328806
0.0321513
0.0309182
0.0292537
0.0272946
0.0251475
0.023006
0.0209671
0.0191891
0.0177329
0.0166635
0.016007
0.0157033
0.0156906
0.0158137
0.0159709
0.0160568
0.0160431
0.0159092
0.0156544
0.0152797
0.0147885
0.014187
0.0134829
0.0126871
0.0118109
0.0108693
0.0098766
0.00885083
0.00780797
0.00676781
0.00574696
0.00476531
0.00383875
0.00298559
0.00221977
0.00155644
0.00100629
0.000579929
0.000283921
0.00012332
9.99774e-05
0.000212987
0.000459344
0.000832356
0.00132454
0.00192418
0.00262005
0.00339656
0.00423991
0.00513211
0.00605788
0.00699838
0.00793824
0.00885922
0.00974692
0.0105851
0.0113613
0.0120623
0.0126784
0.0132002
0.0136214
0.0139368
0.0141438
0.0142562
0.0142957
0.0143524
0.0145158
0.0149266
0.015642
0.0167225
0.0181464
0.0198573
0.0217992
0.023824
0.02584
0.0276647
0.0291961
0.0303059
0.0309267
0.0309979
0.0304862
0.0294147
0.0277455
0.0256641
0.0232236
0.0206701
0.0182394
0.0162481
0.0151457
0.0167971
0.0179082
0.0200029
0.0224891
0.0251712
0.0276984
0.0298778
0.0315794
0.0326373
0.0330972
0.0329322
0.0322041
0.0309554
0.0292913
0.0273054
0.025158
0.0229882
0.0209486
0.0191544
0.0176978
0.016624
0.0159673
0.0156825
0.0156698
0.0158186
0.0159757
0.016068
0.0160544
0.0159207
0.0156659
0.0152904
0.0147993
0.0141962
0.0134922
0.012694
0.0118179
0.0108733
0.00988069
0.00885145
0.00780874
0.00676496
0.00574426
0.00475914
0.00383271
0.00297651
0.00221081
0.00154512
0.000995062
0.000567266
0.000271301
0.000110305
8.69657e-05
0.000200643
0.000446963
0.000821624
0.00131374
0.00191583
0.0026116
0.00339115
0.00423437
0.0051299
0.00605553
0.0069994
0.00793912
0.00886324
0.00975081
0.0105917
0.0113678
0.0120708
0.0126868
0.01321
0.0136312
0.0139472
0.0141541
0.0142616
0.0143012
0.0143353
0.0144987
0.0148918
0.0156074
0.0166911
0.0181154
0.0198412
0.0217837
0.0238351
0.0258515
0.0277016
0.0292326
0.0303569
0.0309765
0.0310547
0.030541
0.0294664
0.0277947
0.0256828
0.023241
0.0206478
0.0182175
0.0161442
0.0150422
0.0166843
0.0177952
0.0199754
0.0224552
0.0251908
0.0277194
0.0299356
0.0316401
0.0327002
0.0331623
0.0329879
0.0322611
0.0309956
0.0293319
0.027317
0.0251693
0.022969
0.0209287
0.019117
0.0176599
0.0165814
0.0159244
0.0156601
0.0156473
0.0158238
0.0159809
0.0160801
0.0160665
0.015933
0.0156782
0.015302
0.014811
0.0142062
0.0135022
0.0127014
0.0118254
0.0108775
0.00988511
0.00885212
0.00780958
0.00676189
0.00574136
0.00475247
0.0038262
0.0029667
0.00220113
0.00153291
0.000982936
0.000553591
0.000257674
9.62503e-05
7.29151e-05
0.000187313
0.000433593
0.000810036
0.00130207
0.00190682
0.00260248
0.0033853
0.00422838
0.00512752
0.006053
0.0070005
0.00794007
0.00886758
0.00975501
0.0105988
0.0113748
0.0120801
0.012696
0.0132207
0.0136417
0.0139584
0.0141653
0.0142675
0.014307
0.0143169
0.0144803
0.0148542
0.01557
0.0166572
0.0180819
0.0198239
0.021767
0.0238472
0.0258639
0.0277415
0.029272
0.030412
0.0310303
0.031116
0.0306002
0.0295223
0.0278479
0.025703
0.0232598
0.0206192
0.0181938
0.0160321
0.0149303
0.0165789
0.0176886
0.0199055
0.0223818
0.0251766
0.0276976
0.0299862
0.0316936
0.0327674
0.0332342
0.0330497
0.0323328
0.0310467
0.0293987
0.0273338
0.0251877
0.0229482
0.0209071
0.0190766
0.017619
0.0165353
0.0158781
0.0156358
0.015623
0.0158587
0.016016
0.0161219
0.0161078
0.0159745
0.0157184
0.0153414
0.0148483
0.0142418
0.0135351
0.0127318
0.0118526
0.0109015
0.00990558
0.00886898
0.00782287
0.00677141
0.00574749
0.00475497
0.00382565
0.00296298
0.00219492
0.00152426
0.000972506
0.000541675
0.000244782
8.2948e-05
5.95108e-05
0.000174601
0.000421628
0.000799789
0.00129335
0.00190066
0.00259852
0.0033845
0.00423028
0.00513288
0.00606141
0.0070124
0.00795511
0.0088859
0.00977634
0.010623
0.0114017
0.0121092
0.0127274
0.0132535
0.0136762
0.0139935
0.0142014
0.0142985
0.0143384
0.014297
0.0144604
0.0148136
0.0155296
0.0166205
0.0180458
0.0198051
0.0217489
0.0238659
0.025881
0.0278056
0.0293217
0.0304807
0.0310899
0.0311839
0.0306635
0.0295731
0.0278953
0.0256885
0.0232506
0.0205605
0.0181377
0.0159317
0.0148308
0.0164999
0.017605
0.0198211
0.0223025
0.0250961
0.0276547
0.0299433
0.0317179
0.0327932
0.0333405
0.033159
0.0325186
0.031237
0.0296478
0.0275882
0.0254748
0.0232279
0.0211741
0.0193491
0.0178583
0.0167885
0.0161107
0.0159028
0.0158951
0.0161673
0.0163266
0.0164326
0.0164128
0.0162795
0.0160091
0.0156322
0.0151167
0.0145103
0.0137744
0.0129712
0.0120574
0.0111066
0.0100729
0.0090365
0.00795184
0.00690057
0.00583971
0.00484738
0.00388505
0.00302254
0.00222749
0.00155696
0.000985888
0.000555137
0.00024775
8.59465e-05
6.13669e-05
0.000176436
0.000431567
0.000809657
0.00131985
0.00192704
0.00264876
0.00343459
0.00430973
0.00521215
0.00617347
0.00712428
0.00810096
0.00903157
0.0099549
0.0108014
0.0116098
0.0123172
0.0129601
0.0134861
0.0139272
0.0142444
0.0144633
0.0145603
0.0146043
0.0145316
0.0146952
0.015018
0.0157559
0.0168342
0.0182921
0.0200462
0.022004
0.0241278
0.0261152
0.0280348
0.029499
0.0306539
0.0311948
0.0312858
0.0306937
0.0296016
0.0278641
0.0256571
0.0231863
0.0204971
0.0180704
0.0158651
0.0147686
0.0164146
0.0175147
0.0197299
0.0222169
0.0250093
0.0276084
0.0298969
0.0317441
0.0328211
0.0334553
0.0332771
0.0327193
0.0314424
0.0299168
0.027863
0.0257848
0.023544
0.0214993
0.0196796
0.0181849
0.0171188
0.0164386
0.0162321
0.0162284
0.0165006
0.0166621
0.016768
0.0167421
0.0166089
0.0163231
0.0159463
0.0154066
0.0148004
0.0140328
0.0132297
0.0122787
0.011328
0.0102536
0.00921739
0.00809111
0.00704005
0.00593929
0.00494717
0.00394919
0.00308686
0.00226266
0.00159227
0.00100034
0.000569675
0.000250955
8.91845e-05
6.33712e-05
0.000178417
0.000442299
0.000820313
0.00134846
0.00195553
0.00270302
0.00348869
0.00439552
0.00529776
0.00629448
0.00724509
0.00825845
0.00918887
0.0101477
0.010994
0.0118345
0.0125417
0.0132114
0.0137373
0.0141981
0.0145153
0.0147461
0.0148431
0.0148915
0.0148188
0.0149846
0.0153062
0.0160508
0.0171259
0.0185908
0.0203402
0.0222923
0.0244106
0.0263681
0.0282823
0.0296905
0.0308408
0.031308
0.0313959
0.0307262
0.0296323
0.0278305
0.0256233
0.023117
0.0204286
0.0179977
0.0157931
0.0147014
0.0163225
0.0174172
0.0196315
0.0221245
0.0249155
0.0275584
0.0298468
0.0317725
0.0328512
0.0335792
0.0334046
0.032936
0.0316643
0.0302072
0.0281597
0.0261196
0.0238854
0.0218505
0.0200365
0.0185376
0.0174753
0.0167928
0.0165877
0.0165883
0.0168604
0.0170243
0.0171302
0.0170978
0.0169646
0.0166621
0.0162854
0.0157197
0.0151135
0.0143118
0.0135089
0.0125176
0.0115671
0.0104487
0.00941272
0.00824149
0.00719067
0.00604683
0.00505492
0.00401846
0.00315632
0.00230064
0.00163039
0.00101594
0.000585373
0.000254416
9.2681e-05
6.55355e-05
0.000180556
0.000453889
0.00083182
0.00137935
0.00198629
0.0027616
0.0035471
0.00448816
0.00539021
0.00642514
0.00737555
0.00842851
0.00935873
0.0103559
0.011202
0.0120772
0.0127843
0.0134827
0.0140085
0.0144907
0.0148078
0.0150514
0.0151484
0.0152016
0.0151289
0.0152971
0.0156173
0.0163692
0.0174408
0.0189134
0.0206576
0.0226037
0.024716
0.0266411
0.0285496
0.0298972
0.0310428
0.0314303
0.0315147
0.0307614
0.0296656
0.0277943
0.0255867
0.023042
0.0203547
0.0179191
0.0157154
0.0146289
0.016223
0.0173119
0.0195252
0.0220247
0.0248142
0.0275044
0.0297927
0.0318031
0.0328837
0.033713
0.0335423
0.0331701
0.0319039
0.0305208
0.0284801
0.0264811
0.024254
0.0222298
0.020422
0.0189185
0.0178604
0.0171751
0.0169717
0.0169769
0.017249
0.0174154
0.0175213
0.0174818
0.0173486
0.0170282
0.0166516
0.0160577
0.0154517
0.014613
0.0138104
0.0127755
0.0118252
0.0106594
0.00962365
0.00840388
0.00735331
0.00616295
0.00517128
0.00409325
0.00323132
0.00234165
0.00167156
0.00103279
0.000602324
0.000258153
9.64566e-05
6.78727e-05
0.000182866
0.000466404
0.000844245
0.00141271
0.0020195
0.00282486
0.00361018
0.0045882
0.00549003
0.00656624
0.00751643
0.00861215
0.00954215
0.0105808
0.0114267
0.0123393
0.0130462
0.0137757
0.0143014
0.0148067
0.0151237
0.0153812
0.0154782
0.0155365
0.0154638
0.0156346
0.0159533
0.016713
0.0177809
0.0192617
0.0210004
0.0229399
0.0250457
0.026936
0.0288382
0.0301205
0.0312608
0.0315624
0.031643
0.0307993
0.0297015
0.0277551
0.0255472
0.0229611
0.0202749
0.0178343
0.0156315
0.0145506
0.0161155
0.0171982
0.0194104
0.0219169
0.0247048
0.0274461
0.0297343
0.0318362
0.0329188
0.0338575
0.0336909
0.0334228
0.0321626
0.0308595
0.0288261
0.0268714
0.024652
0.0226393
0.0208381
0.0193298
0.0182762
0.0175881
0.0173864
0.0173966
0.0176686
0.0178378
0.0179436
0.0178965
0.0177634
0.0174236
0.017047
0.0164227
0.0158169
0.0149384
0.0141359
0.0130541
0.012104
0.0108869
0.00985142
0.00857924
0.00752893
0.00628834
0.00529692
0.00417402
0.0033123
0.00238593
0.00171601
0.00105099
0.000620629
0.000262189
0.000100534
7.03964e-05
0.00018536
0.000479918
0.000857663
0.00144873
0.00205537
0.00289318
0.00367829
0.00469623
0.00559783
0.00671861
0.00766855
0.00881045
0.00974022
0.0108236
0.0116692
0.0126222
0.013329
0.0140921
0.0146177
0.0151479
0.0154648
0.0157372
0.0158342
0.0158981
0.0158254
0.015999
0.0163162
0.0170843
0.0181482
0.0196379
0.0213705
0.023303
0.0254018
0.0272544
0.0291499
0.0303616
0.0314963
0.031705
0.0317816
0.0308403
0.0297402
0.0277128
0.0255046
0.0228737
0.0201887
0.0177428
0.0155408
0.014466
0.0159995
0.0170754
0.0192865
0.0218005
0.0245867
0.0273832
0.0296712
0.0318719
0.0329567
0.0340135
0.0338514
0.0336957
0.032442
0.0312252
0.0291997
0.027293
0.0250818
0.0230815
0.0212876
0.0197739
0.0187251
0.0180339
0.0178342
0.0178498
0.0181217
0.0182939
0.0183997
0.0183443
0.0182112
0.0178505
0.017474
0.0168169
0.0162112
0.0152897
0.0144875
0.0133549
0.0124051
0.0111325
0.0100974
0.0087686
0.00771858
0.00642374
0.0054326
0.00426123
0.00339975
0.00243375
0.00176402
0.00107063
0.000640395
0.000266547
0.000104936
7.31216e-05
0.000188053
0.000494511
0.000872152
0.00148763
0.0020941
0.00296694
0.00375184
0.00481288
0.00571423
0.00688314
0.00783282
0.00902459
0.00995409
0.0110857
0.0119312
0.0129278
0.0136343
0.0144338
0.0149592
0.0155163
0.0158331
0.0161217
0.0162187
0.0162886
0.0162159
0.0163924
0.0167079
0.0174852
0.0185447
0.0200441
0.0217702
0.023695
0.0257863
0.0275982
0.0294864
0.0306219
0.0317505
0.031859
0.0319312
0.0308845
0.029782
0.0276671
0.0254585
0.0227794
0.0200956
0.0176439
0.015443
0.0143747
0.015912
0.0169834
0.0190835
0.0216115
0.0243862
0.0272323
0.0295716
0.031846
0.0330147
0.0341594
0.0340915
0.0340155
0.0328608
0.0316994
0.0297375
0.0278713
0.0256645
0.023701
0.021874
0.0203905
0.0193073
0.0186349
0.0184406
0.0184593
0.0187834
0.0189576
0.0190568
0.0189957
0.0188512
0.0184759
0.0180793
0.0173995
0.0167658
0.0158145
0.0149779
0.0138103
0.0128219
0.0115111
0.0104353
0.00906747
0.00797744
0.0066451
0.00561698
0.00441214
0.00351898
0.00252559
0.00183141
0.00111843
0.000672396
0.000287911
0.000120013
8.70336e-05
0.000205418
0.000520093
0.000910504
0.00154285
0.00217041
0.00306744
0.00388019
0.00497102
0.00590506
0.00710719
0.00809214
0.00931836
0.0102833
0.0114484
0.0123272
0.013354
0.0140897
0.0149143
0.015463
0.0160387
0.0163717
0.0166715
0.0167805
0.0168546
0.0167426
0.0169228
0.0172374
0.0180037
0.0190966
0.020573
0.0223308
0.024225
0.0263139
0.0280909
0.0299225
0.0310093
0.0320489
0.0320862
0.0320744
0.0309494
0.029773
0.0275931
0.0253396
0.0226181
0.019947
0.0174848
0.01539
0.0143262
0.0158589
0.0169299
0.0188605
0.0213853
0.0241379
0.0269788
0.0294246
0.0316966
0.0331143
0.0342632
0.0344828
0.0344176
0.033528
0.0323829
0.0306349
0.0287886
0.0267123
0.0247682
0.0229835
0.0215149
0.0204308
0.0197666
0.0195338
0.0195539
0.0198318
0.020006
0.0200852
0.0200241
0.0198451
0.01947
0.0190122
0.0183326
0.017614
0.0166631
0.0157225
0.0145552
0.0134497
0.0121393
0.0109405
0.00957312
0.0083617
0.0070298
0.00588947
0.00468502
0.00369574
0.00270268
0.0019343
0.00122156
0.000727608
0.000343246
0.000156288
0.000123319
0.000252179
0.000566753
0.000995929
0.00162807
0.00231961
0.00321636
0.00411364
0.00520411
0.0062373
0.00743904
0.00853095
0.00975677
0.0108294
0.0119941
0.0129742
0.0140006
0.014825
0.0156494
0.0162688
0.0168443
0.0172262
0.0175259
0.0176713
0.0177454
0.0176929
0.0178718
0.0182391
0.018998
0.0201064
0.0215694
0.0232982
0.0251749
0.0271505
0.0289095
0.0305502
0.031622
0.0324248
0.032452
0.0321854
0.0310559
0.0296608
0.0274822
0.0251357
0.0224181
0.0197697
0.0173101
0.0153925
0.014329
0.0157721
0.0168427
0.0185567
0.0210786
0.0238723
0.0267075
0.0292659
0.0315352
0.0332218
0.0343753
0.0349053
0.0348518
0.0342484
0.0331209
0.031604
0.0297791
0.0278438
0.0259207
0.0241816
0.022729
0.0216439
0.0209887
0.0207144
0.0207359
0.0209639
0.0211381
0.0211957
0.0211346
0.0209185
0.0205435
0.0200197
0.0193403
0.01853
0.0175794
0.0165264
0.0153596
0.0141277
0.0128177
0.0114861
0.0101191
0.00877665
0.00744521
0.00618371
0.00497968
0.00388662
0.0028939
0.00204542
0.00133292
0.000787227
0.000403
0.000195458
0.000162501
0.000302674
0.000617139
0.00108817
0.00172009
0.00248073
0.00337717
0.00436572
0.00545582
0.00659606
0.00779739
0.0090048
0.0102302
0.011419
0.0125833
0.0136729
0.0146989
0.015619
0.0164431
0.0171388
0.0177142
0.0181489
0.0184485
0.0186333
0.0187074
0.018719
0.0188966
0.0193208
0.0200717
0.0211968
0.0226454
0.0243429
0.0262006
0.028054
0.0297935
0.031228
0.0322836
0.0328307
0.0328469
0.0323052
0.0311709
0.0295397
0.0273625
0.0249186
0.0222053
0.0195239
0.0170665
0.0153659
0.0143027
0.0152044
0.016274
0.0181144
0.02063
0.0236003
0.02643
0.0293144
0.0315878
0.0335954
0.0347622
0.0356181
0.0355846
0.0352404
0.0341375
0.0327469
0.0309475
0.0290214
0.02712
0.0253393
0.0239019
0.0227831
0.0221361
0.0218971
0.0219201
0.0222232
0.0223973
0.0224665
0.0224054
0.0221496
0.0217748
0.0211748
0.0204957
0.0195762
0.0186259
0.0174368
0.0162704
0.0148835
0.0135741
0.0120784
0.0107119
0.00920658
0.00787564
0.00646297
0.00525938
0.00403656
0.00304421
0.00209568
0.00138345
0.000773651
0.000389567
0.00015759
0.000124646
0.000280967
0.000595314
0.00112117
0.00175286
0.00260244
0.00349854
0.00460341
0.0056931
0.00696854
0.00816942
0.00952146
0.0107464
0.0120795
0.0132433
0.0144672
0.0154929
0.0165291
0.0173528
0.0181395
0.0187146
0.0192103
0.0195097
0.0197106
0.0197847
0.0197528
0.019929
0.0203395
0.0210831
0.0222524
0.0236874
0.0254342
0.0272722
0.0291281
0.0308442
0.0321736
0.0332064
0.0335234
0.0335207
0.032685
0.0315377
0.0296182
0.0274362
0.0247033
0.0219938
0.019156
0.0167037
0.014866
0.0138038
0.014595
0.015664
0.0176478
0.0201628
0.0233027
0.0261268
0.0293684
0.0316467
0.0340224
0.0352039
0.0364074
0.0363958
0.0363251
0.035249
0.0339908
0.032219
0.030286
0.0284079
0.0265611
0.0251401
0.0239734
0.0233351
0.0231571
0.0231817
0.023585
0.023759
0.0238426
0.0237816
0.023483
0.0231083
0.0224258
0.0217469
0.020709
0.0197591
0.0184222
0.0172562
0.0157011
0.0143921
0.0127181
0.0113522
0.00966987
0.00833946
0.00676244
0.00555935
0.00419545
0.00320351
0.0021462
0.00143426
0.0007548
0.000370873
0.000112391
7.94593e-05
0.00025343
0.000567649
0.00115322
0.00178465
0.00273106
0.0036268
0.00485822
0.00594747
0.00736996
0.00857035
0.0100796
0.0113041
0.0127939
0.0139572
0.0153272
0.0163524
0.0175147
0.0183381
0.0192234
0.0197983
0.0203599
0.0206592
0.0208761
0.0209502
0.0208553
0.02103
0.0214049
0.0221406
0.0233674
0.0247876
0.0266069
0.0284237
0.0302977
0.0319885
0.033208
0.0342158
0.0342905
0.034267
0.0331176
0.0319559
0.0297049
0.0275172
0.0244669
0.0217619
0.0187722
0.0163212
0.0143305
0.0132688
0.0141709
0.0152071
0.0171876
0.0196936
0.0228244
0.0257798
0.029043
0.0315727
0.034005
0.0355137
0.0367646
0.0370987
0.0370739
0.0363035
0.0350885
0.0335326
0.0316237
0.0298553
0.028018
0.0266319
0.0254721
0.0248482
0.0246955
0.024741
0.0251715
0.025348
0.0254327
0.0253364
0.0250347
0.0245846
0.0238959
0.0231047
0.0220579
0.0209646
0.0196167
0.0182844
0.0167168
0.0152285
0.0135413
0.0119939
0.0102985
0.00879574
0.00720659
0.00585088
0.00447657
0.00336101
0.00229568
0.00149643
0.000811837
0.000381748
0.000121309
8.54819e-05
0.000260751
0.000614593
0.00120457
0.00191472
0.00286828
0.00387602
0.00511677
0.00634353
0.00777688
0.00913111
0.010652
0.0120366
0.013538
0.0148576
0.0162383
0.0174064
0.0185779
0.019522
0.0204146
0.0210812
0.0216477
0.0220048
0.0222229
0.0223209
0.0222053
0.0223834
0.0227394
0.0234808
0.0247041
0.0261085
0.0279214
0.0296521
0.0315056
0.033011
0.0341918
0.034929
0.0349618
0.0346282
0.033435
0.0319787
0.0296756
0.0272619
0.0241909
0.0213682
0.0183859
0.015945
0.0139571
0.0129265
0.013713
0.0147138
0.0166908
0.0191869
0.0223079
0.0254052
0.028661
0.031492
0.0339255
0.0358311
0.0370928
0.0378424
0.0378374
0.0374313
0.0362429
0.0349439
0.0330639
0.0314294
0.0296174
0.0282807
0.0271383
0.0265386
0.0263928
0.026464
0.0268945
0.0270739
0.0271586
0.0270212
0.0267196
0.0261817
0.0254934
0.0245714
0.0235251
0.0222648
0.0209176
0.0193916
0.0178247
0.0161276
0.0144412
0.0126827
0.010988
0.00928472
0.00769632
0.00616297
0.00478932
0.00352987
0.00246505
0.00156418
0.000879906
0.000396096
0.00013578
9.65742e-05
0.00027176
0.000671719
0.00126142
0.00206319
0.0030163
0.00415441
0.00539458
0.00678139
0.00821406
0.00974734
0.0112675
0.0128385
0.0143392
0.0158407
0.0172208
0.018555
0.019726
0.0208105
0.0217027
0.0224759
0.0230421
0.0234666
0.0236845
0.0238106
0.0236949
0.0238783
0.0242281
0.0249724
0.02618
0.0275604
0.0293502
0.0309762
0.0328032
0.0340882
0.0352443
0.0356589
0.0356729
0.0349666
0.0337622
0.0319489
0.0296433
0.0269587
0.0238929
0.0209431
0.0179687
0.0155388
0.0135539
0.0125569
0.0132185
0.0141811
0.0161543
0.0186398
0.0217501
0.0250006
0.0282485
0.0314049
0.0338397
0.0361738
0.0374473
0.0386455
0.0386618
0.0386493
0.0374895
0.0364679
0.0346191
0.0331291
0.0313446
0.0300611
0.0289375
0.0283639
0.0282256
0.0283247
0.0287549
0.0289376
0.0290222
0.0288405
0.028539
0.0279064
0.0272184
0.0261552
0.0251095
0.0236688
0.0223223
0.0205872
0.0190211
0.0170986
0.015413
0.0134264
0.0117327
0.00981273
0.00822515
0.00649998
0.00512703
0.00371222
0.00264794
0.00163733
0.000953409
0.000411589
0.000151407
0.000108552
0.000283648
0.000733407
0.0013228
0.00222352
0.00317614
0.00445503
0.00569456
0.00725421
0.00868615
0.0104128
0.0119322
0.0137044
0.0152043
0.0169023
0.0182817
0.0197953
0.0209657
0.0222019
0.0230936
0.023982
0.0245479
0.0250451
0.0252629
0.0254191
0.0253035
0.0254926
0.0258356
0.026583
0.0277738
0.0291281
0.0308931
0.0324061
0.0342045
0.0352515
0.0363809
0.0364471
0.0364408
0.0353319
0.0341156
0.0319167
0.0296083
0.0266313
0.0235711
0.0204841
0.0175182
0.0151002
0.0131185
0.0121578
0.012868
0.0138168
0.0156377
0.0181088
0.021129
0.0244205
0.0276941
0.030976
0.033615
0.0361269
0.037692
0.0390817
0.0394351
0.0395968
0.0387895
0.0379009
0.0363478
0.0349421
0.03334
0.0321039
0.0310645
0.0305187
0.0303728
0.0304859
0.0308665
0.0310503
0.0310941
0.0308952
0.030535
0.0298656
0.0290867
0.0279688
0.0268044
0.0252939
0.0238075
0.0219913
0.0202721
0.0182622
0.0164191
0.0143442
0.0124979
0.0104941
0.00876794
0.00696853
0.00547894
0.004004
0.00285157
0.00179851
0.00105954
0.000495278
0.000215642
0.000171373
0.000362935
0.000831967
0.00147196
0.00241097
0.00344463
0.00477799
0.00612364
0.00775018
0.00930666
0.0111081
0.0127628
0.014613
0.0162507
0.0180248
0.0195363
0.0211194
0.0224084
0.0237032
0.0246932
0.0256262
0.0262642
0.0267896
0.0270644
0.0272324
0.0271812
0.0273718
0.0277421
0.0284773
0.0296108
0.0309327
0.0325475
0.033992
0.0355329
0.0364646
0.0372803
0.0371912
0.0368826
0.0356011
0.0341235
0.0317637
0.0292714
0.0261804
0.0230928
0.0199676
0.017082
0.0146763
0.0128608
0.0119131
0.0123431
0.0132909
0.0148738
0.017336
0.0203779
0.0236529
0.0270895
0.0303579
0.033373
0.0358823
0.0379795
0.0393794
0.0403145
0.040499
0.040238
0.0393821
0.0382675
0.0368977
0.035575
0.0343685
0.0334698
0.0329414
0.0327949
0.0329109
0.0332381
0.0334218
0.0334138
0.0332151
0.0327551
0.0320862
0.0311494
0.0300322
0.0286598
0.0271502
0.0254168
0.0236018
0.021611
0.0196023
0.0174791
0.0154055
0.0132872
0.0112847
0.00931101
0.00751268
0.00581463
0.00434057
0.0030306
0.00197816
0.00114102
0.000577099
0.00026328
0.000219037
0.000440985
0.000909736
0.00164139
0.00257984
0.0037596
0.00509217
0.00662854
0.00825411
0.0100337
0.0118341
0.0137304
0.0155795
0.0174627
0.0192357
0.0209816
0.0225637
0.0240622
0.0253562
0.0265183
0.0274507
0.028214
0.0287391
0.0290978
0.0292656
0.0292981
0.0294859
0.0298942
0.0306139
0.0316555
0.0329505
0.0343411
0.0357528
0.0369181
0.0378191
0.0381531
0.0380421
0.0372121
0.0359197
0.0339631
0.0316037
0.0287716
0.0256908
0.0224515
0.0193395
0.0164325
0.0140341
0.0124508
0.0115041
0.0112757
0.0122182
0.0138565
0.0162999
0.0194287
0.0226915
0.0265637
0.0298175
0.0334032
0.0359183
0.0386464
0.0400668
0.0416259
0.0418414
0.0420671
0.0412526
0.0403969
0.0390667
0.0378302
0.0366539
0.0357834
0.035272
0.0352732
0.0353923
0.035889
0.0360725
0.0360626
0.0358638
0.0352949
0.0346261
0.0335074
0.0323904
0.0307718
0.0292626
0.0272326
0.0254182
0.0230978
0.0210898
0.0186241
0.0165512
0.0140985
0.0120967
0.00981738
0.00801972
0.00606356
0.00459006
0.00308502
0.00203299
0.00107498
0.000511286
0.000156895
0.000112697
0.000375126
0.00084372
0.0016925
0.00263061
0.00399505
0.00532714
0.0071028
0.00872778
0.0107854
0.0125852
0.0147804
0.0166289
0.0188133
0.0205857
0.0226167
0.0241984
0.0259486
0.0272423
0.0286082
0.0295404
0.030448
0.030973
0.0313826
0.0315505
0.0314778
0.0316628
0.0319758
0.0326801
0.0337288
0.0349965
0.0363411
0.0377163
0.0386775
0.0395398
0.0394543
0.0393133
0.0379232
0.0366098
0.0340754
0.031708
0.0283523
0.0252823
0.0216438
0.0185414
0.0155477
0.013167
0.0115036
0.0105618
0.0104853
0.0113461
0.0129786
0.0153064
0.0184152
0.0217231
0.0255724
0.0291078
0.0326925
0.035689
0.0384265
0.040463
0.0420444
0.042924
0.0431917
0.0429772
0.0421699
0.0412869
0.0400886
0.0391839
0.0383406
0.0379681
0.0379917
0.0381666
0.0386678
0.03883
0.0388201
0.0385248
0.0379563
0.0371206
0.0360026
0.034656
0.0330385
0.0312491
0.0292205
0.0270908
0.024772
0.022432
0.0199679
0.0175656
0.0151147
0.0128055
0.0105278
0.00846267
0.00650787
0.00482205
0.00331805
0.00212035
0.00116301
0.000527486
0.000173342
0.000133756
0.000396002
0.000943651
0.00179184
0.00287724
0.00424073
0.00577847
0.00755289
0.00942904
0.0114852
0.0135666
0.0157603
0.0179042
0.0200871
0.0221516
0.0241812
0.0260347
0.0277837
0.0293133
0.0306782
0.0317969
0.0327039
0.0333557
0.0337651
0.0339929
0.0339159
0.0340894
0.0343841
0.0350017
0.0360275
0.0370861
0.0383971
0.0393973
0.0403144
0.0406512
0.040526
0.0397874
0.038375
0.0364976
0.0339519
0.0311384
0.0277808
0.0244433
0.0208234
0.0176698
0.0146931
0.0124165
0.0107583
0.00989371
0.00963189
0.0104043
0.0120338
0.0142337
0.0173207
0.0206773
0.0245019
0.0283414
0.0319104
0.0354394
0.0381754
0.0408909
0.0424864
0.0440931
0.0443897
0.0448349
0.0440662
0.043678
0.0425183
0.0419206
0.041106
0.0408942
0.0409296
0.0411675
0.0416686
0.0418076
0.0417977
0.0413982
0.0408302
0.0398142
0.0386972
0.0371025
0.0354863
0.0333941
0.0313671
0.0288969
0.0265798
0.0238812
0.0214191
0.0186611
0.016212
0.0135709
0.0112949
0.00894099
0.00698766
0.00507256
0.00356969
0.00221468
0.00125806
0.00054498
0.000191103
0.000156496
0.000418545
0.00105156
0.00189911
0.00314356
0.00450602
0.00626583
0.00803892
0.0101863
0.0122409
0.0146263
0.0168184
0.0192813
0.0214626
0.0238425
0.0258706
0.0280176
0.0297653
0.0315496
0.0329135
0.0342336
0.0351399
0.0359286
0.0363377
0.0366302
0.0365532
0.036714
0.0369979
0.0375145
0.0385142
0.0393365
0.0406118
0.0411972
0.0420778
0.041837
0.0416833
0.0402905
0.0388628
0.0363639
0.0338169
0.0305098
0.0271637
0.0235373
0.0199375
0.0167285
0.0137702
0.0116087
0.00995343
0.00917231
0.0090174
0.00977503
0.0111993
0.0133741
0.0162286
0.0195637
0.0232278
0.0271039
0.0308303
0.0344523
0.0375972
0.0404464
0.0426314
0.0443941
0.0454201
0.046022
0.0460078
0.0457555
0.0452047
0.0447081
0.0442634
0.0441116
0.0441927
0.0444485
0.0448083
0.0449428
0.044822
0.0444028
0.0436954
0.0426455
0.0413372
0.0396961
0.0378465
0.0356976
0.0334075
0.0308737
0.0282782
0.0255126
0.022772
0.0199476
0.0172352
0.0145323
0.0120225
0.00961479
0.00746946
0.00551165
0.00386809
0.00248381
0.00144416
0.000716688
0.000340498
0.000306861
0.000607096
0.00125606
0.002199
0.00347314
0.00498224
0.00678348
0.00874608
0.010944
0.0132208
0.0156629
0.0180978
0.0206203
0.023052
0.0254909
0.0277636
0.0299655
0.0319385
0.0337705
0.0353278
0.0366856
0.0377424
0.0385568
0.039092
0.0393967
0.0394736
0.0396284
0.0399079
0.040381
0.0410864
0.0418261
0.0425822
0.0430504
0.0432629
0.0428824
0.042067
0.0405317
0.0385624
0.035939
0.0330123
0.0296163
0.0261121
0.0224477
0.0189729
0.0157795
0.0130256
0.0108854
0.00945831
0.00869116
0.00765974
0.00841525
0.0096088
0.0117622
0.0145213
0.0178258
0.0217628
0.0256023
0.0298392
0.0334409
0.0373221
0.0401701
0.0432536
0.0450355
0.0469676
0.0476063
0.0483363
0.0481284
0.0480834
0.0476254
0.0474762
0.0473477
0.0476463
0.0479063
0.0483982
0.0485326
0.0483459
0.0479271
0.0470285
0.0459796
0.0443905
0.0427508
0.0405449
0.038398
0.0356958
0.0331642
0.0301243
0.0273612
0.0241695
0.0213477
0.0182042
0.0155036
0.0126075
0.0102019
0.0077373
0.00578121
0.00390294
0.00251988
0.00134221
0.000615377
0.000203753
0.000170146
0.000537196
0.00118559
0.00229143
0.00356444
0.00532126
0.00712091
0.00940066
0.0115967
0.0142413
0.0166813
0.019514
0.0220342
0.0248713
0.027308
0.0299709
0.0321709
0.034497
0.0363274
0.0381804
0.039537
0.0408155
0.0416292
0.0422748
0.0425793
0.0425849
0.0427357
0.0428679
0.0433195
0.0438117
0.0445154
0.0448648
0.0452906
0.0448667
0.0444492
0.0428235
0.0412665
0.0384648
0.0358382
0.0322132
0.0288319
0.0248342
0.0211999
0.0174461
0.0142796
0.0115885
0.00946852
0.00823187
0.00746671
0.00659678
0.00722038
0.00841152
0.0102925
0.0130153
0.0161427
0.0200444
0.0239483
0.0281894
0.0321506
0.0360599
0.0395369
0.0426734
0.0452835
0.0472985
0.0488406
0.0496595
0.050265
0.0502912
0.0504239
0.0503236
0.0505132
0.0508437
0.0511892
0.0516754
0.0517443
0.0515548
0.0509821
0.0500735
0.0488011
0.0471973
0.0452757
0.0430513
0.0405787
0.0378551
0.0349715
0.0319086
0.0287863
0.0255714
0.0224028
0.019237
0.0162209
0.013305
0.0106318
0.00815078
0.00598895
0.00409867
0.00258174
0.00139708
0.000614117
0.000200809
0.000190356
0.000560996
0.00130916
0.00242354
0.00386651
0.00563624
0.00766636
0.00996257
0.0124372
0.0151009
0.0178531
0.0207064
0.0235562
0.0264144
0.0291811
0.0318643
0.0343772
0.0367217
0.038831
0.0406994
0.0422856
0.0435757
0.0445567
0.0452075
0.0455987
0.0456094
0.0457139
0.0458206
0.046024
0.0464758
0.0466835
0.0469709
0.0466824
0.0461777
0.0449393
0.0432349
0.040903
0.0380481
0.0348159
0.0311597
0.0274144
0.023407
0.0196777
0.0159515
0.0129208
0.0102615
0.0083885
0.007154
0.00651531
0.00559979
0.00612767
0.00726809
0.00895551
0.0115019
0.0144754
0.0181749
0.0221161
0.0262777
0.0305165
0.0344786
0.0384508
0.0417644
0.0450317
0.0473503
0.0496145
0.05082
0.0520837
0.0524779
0.0530998
0.0532523
0.0537127
0.0540987
0.0545179
0.0549203
0.0549384
0.0546888
0.0539967
0.0530232
0.0515778
0.0498978
0.0477581
0.0454501
0.0427255
0.039915
0.0367592
0.0336102
0.0302103
0.0269141
0.0234775
0.020239
0.0169789
0.0140018
0.0111218
0.00859351
0.00627267
0.00435071
0.00273035
0.00153061
0.000704335
0.000292876
0.000300373
0.000689509