/*--------------------------------*- C++ -*----------------------------------*\
| =========                 |                                                 |
| \\      /  F ield         | OpenFOAM: The Open Source CFD Toolbox           |
|  \\    /   O peration     | Version:  v2106                                 |
|   \\  /    A nd           | Website:  www.openfoam.com                      |
|    \\/     M anipulation  |                                                 |
\*---------------------------------------------------------------------------*/
FoamFile
{
    version     2.0;
    format      ascii;
    arch        "LSB;label=32;scalar=64";
    class       volScalarField;
    location    "0";
    object      expGpCoeffs39;
}
// * * * * * * * * * * * * * * * * * * * * * * * * * * * * * * * * * * * * * //

dimensions      [0 0 0 0 0 0 0];

internalField   nonuniform List<scalar> 
8000
(
0.00328458
0.00336855
0.00342635
0.0033939
0.00317972
0.00282806
0.0024185
0.00196689
0.00155834
0.00118857
0.000879699
0.000632148
0.000436931
0.000293241
0.000187165
0.000116309
6.72034e-05
3.85786e-05
1.97053e-05
1.03767e-05
4.50475e-06
2.10019e-06
6.80888e-07
2.56292e-07
-5.04953e-08
-2.61739e-07
-9.34296e-07
-2.11943e-06
-4.53683e-06
-8.25541e-06
-1.41362e-05
-2.2253e-05
-3.34157e-05
-4.76824e-05
-6.55593e-05
-8.70658e-05
-0.000112161
-0.000140806
-0.00017226
-0.000206422
-0.00024186
-0.000278417
-0.000314166
-0.000348921
-0.000380607
-0.000409043
-0.000432422
-0.000450605
-0.000462427
-0.00046782
-0.000466491
-0.000458455
-0.000444334
-0.00042422
-0.00039949
-0.000370294
-0.000338463
-0.000304172
-0.000269347
-0.000234152
-0.000200265
-0.00016782
-0.000138001
-0.000110888
-8.70631e-05
-6.65529e-05
-4.93563e-05
-3.54561e-05
-2.44052e-05
-1.6154e-05
-1.00071e-05
-5.90202e-06
-3.09842e-06
-1.53706e-06
-5.95087e-07
-2.28069e-07
1.65934e-08
1.65357e-07
9.175e-07
2.27384e-06
6.8247e-06
1.45783e-05
3.33753e-05
6.34994e-05
0.000120589
0.000206393
0.000341823
0.00053036
0.000793349
0.00113201
0.00155826
0.00207137
0.00263698
0.00326049
0.00382221
0.00429971
0.0045864
0.00462275
0.00453765
0.00441922
0.00327782
0.00336177
0.00344237
0.00341014
0.00318947
0.00283799
0.0024175
0.00196566
0.00155372
0.00118366
0.000875216
0.000627455
0.000433506
0.000289685
0.000184968
0.000114044
6.61034e-05
3.74536e-05
1.92829e-05
9.94858e-06
4.37549e-06
1.97022e-06
6.51126e-07
2.26548e-07
-3.79756e-08
-2.49192e-07
-8.6834e-07
-2.05333e-06
-4.39873e-06
-8.11683e-06
-1.39203e-05
-2.2036e-05
-3.3137e-05
-4.74018e-05
-6.52563e-05
-8.67601e-05
-0.000111891
-0.000140532
-0.000172089
-0.000206246
-0.000241843
-0.000278395
-0.000314333
-0.000349083
-0.000380953
-0.000409386
-0.000432905
-0.000451087
-0.000462977
-0.000468369
-0.000467024
-0.000458989
-0.000444773
-0.000424662
-0.00039978
-0.000370588
-0.000338579
-0.000304293
-0.000269299
-0.000234109
-0.000200087
-0.000167646
-0.000137744
-0.000110636
-8.67836e-05
-6.6276e-05
-4.91004e-05
-3.52019e-05
-2.4204e-05
-1.59538e-05
-9.87307e-06
-5.76848e-06
-3.02692e-06
-1.46575e-06
-5.70118e-07
-2.03147e-07
9.25763e-09
1.58012e-07
8.27367e-07
2.18422e-06
6.39865e-06
1.41579e-05
3.19983e-05
6.21524e-05
0.000117489
0.000203385
0.000336697
0.000525418
0.00078653
0.00112548
0.00155136
0.00206488
0.00263562
0.00325944
0.00383622
0.00431346
0.00460853
0.00464459
0.00452809
0.00440969
0.00327052
0.00335445
0.00345966
0.00342767
0.00319999
0.00284871
0.00241642
0.00196433
0.00154874
0.00117836
0.000870374
0.000622388
0.000429808
0.000285845
0.000182596
0.000111598
6.49156e-05
3.62388e-05
1.88267e-05
9.48627e-06
4.23591e-06
1.82989e-06
6.18988e-07
1.94428e-07
-2.44564e-08
-2.35644e-07
-7.97119e-07
-1.98194e-06
-4.2496e-06
-7.96719e-06
-1.36871e-05
-2.18017e-05
-3.2836e-05
-4.70989e-05
-6.49291e-05
-8.64299e-05
-0.0001116
-0.000140237
-0.000171904
-0.000206056
-0.000241824
-0.000278371
-0.000314514
-0.000349259
-0.000381327
-0.000409756
-0.000433427
-0.000451606
-0.000463571
-0.000468962
-0.0004676
-0.000459566
-0.000445248
-0.000425139
-0.000400094
-0.000370905
-0.000338705
-0.000304424
-0.000269246
-0.000234061
-0.000199895
-0.000167459
-0.000137468
-0.000110363
-8.64818e-05
-6.5977e-05
-4.8824e-05
-3.49275e-05
-2.39868e-05
-1.57377e-05
-9.7283e-06
-5.62428e-06
-2.94971e-06
-1.38876e-06
-5.43155e-07
-1.76234e-07
1.33612e-09
1.50079e-07
7.30038e-07
2.08745e-06
5.93858e-06
1.37039e-05
3.05114e-05
6.06978e-05
0.000114142
0.000200136
0.000331162
0.000520081
0.000779168
0.00111844
0.0015439
0.00205786
0.00263415
0.0032583
0.00385136
0.0043283
0.00463243
0.00466817
0.00451777
0.00439939
0.00326264
0.00334654
0.00347834
0.0034466
0.00321135
0.00286029
0.00241525
0.00196289
0.00154336
0.00117263
0.000865145
0.000616917
0.000425814
0.000281698
0.000180035
0.000108956
6.36329e-05
3.4927e-05
1.83341e-05
8.98705e-06
4.08518e-06
1.67834e-06
5.84284e-07
1.59744e-07
-9.85778e-09
-2.21014e-07
-7.20212e-07
-1.90486e-06
-4.08856e-06
-7.8056e-06
-1.34353e-05
-2.15487e-05
-3.25109e-05
-4.67717e-05
-6.45758e-05
-8.60734e-05
-0.000111285
-0.000139918
-0.000171704
-0.000205851
-0.000241804
-0.000278346
-0.000314709
-0.000349449
-0.000381731
-0.000410156
-0.000433991
-0.000452167
-0.000464212
-0.000469603
-0.000468221
-0.000460189
-0.00044576
-0.000425654
-0.000400432
-0.000371248
-0.000338842
-0.000304565
-0.00026919
-0.00023401
-0.000199688
-0.000167256
-0.000137169
-0.000110068
-8.61558e-05
-6.56541e-05
-4.85256e-05
-3.46312e-05
-2.37522e-05
-1.55043e-05
-9.57198e-06
-5.46856e-06
-2.86633e-06
-1.30562e-06
-5.14039e-07
-1.47173e-07
-7.21785e-09
1.41514e-07
6.24937e-07
1.98295e-06
5.44178e-06
1.32137e-05
2.89058e-05
5.91271e-05
0.000110527
0.000196628
0.000325185
0.000514318
0.000771217
0.00111084
0.00153585
0.00205029
0.00263256
0.00325707
0.0038677
0.00434434
0.00465824
0.00469364
0.00450662
0.00438827
0.00325412
0.00333801
0.00349851
0.003469
0.00322362
0.00287279
0.00241399
0.00196134
0.00153755
0.00116645
0.000859499
0.000611008
0.000421501
0.000277221
0.00017727
0.000106104
6.22479e-05
3.35104e-05
1.78021e-05
8.44797e-06
3.92242e-06
1.5147e-06
5.4681e-07
1.22291e-07
5.9064e-09
-2.05215e-07
-6.37165e-07
-1.82162e-06
-3.91467e-06
-7.6311e-06
-1.31634e-05
-2.12755e-05
-3.21599e-05
-4.64184e-05
-6.41943e-05
-8.56884e-05
-0.000110946
-0.000139574
-0.000171488
-0.00020563
-0.000241782
-0.000278318
-0.000314919
-0.000349654
-0.000382168
-0.000410588
-0.0004346
-0.000452773
-0.000464905
-0.000470294
-0.000468893
-0.000460862
-0.000446313
-0.000426211
-0.000400797
-0.000371618
-0.000338989
-0.000304718
-0.000269129
-0.000233955
-0.000199464
-0.000167038
-0.000136847
-0.00010975
-8.58039e-05
-6.53055e-05
-4.82034e-05
-3.43111e-05
-2.34988e-05
-1.52523e-05
-9.40317e-06
-5.30042e-06
-2.7763e-06
-1.21583e-06
-4.82599e-07
-1.15792e-07
-1.64548e-08
1.32265e-07
5.11446e-07
1.87011e-06
4.90532e-06
1.26844e-05
2.71719e-05
5.7431e-05
0.000106624
0.00019284
0.000318732
0.000508095
0.000762632
0.00110262
0.00152716
0.00204211
0.00263085
0.00325575
0.00388535
0.00436165
0.00468876
0.00472114
0.00449458
0.00437626
0.00325814
0.00334343
0.00352956
0.00350526
0.00324563
0.00290188
0.00241699
0.00196859
0.00153188
0.00116152
0.000854538
0.000606602
0.000418004
0.000274054
0.000174504
0.000103208
6.07523e-05
3.19808e-05
1.72277e-05
7.86585e-06
3.74666e-06
1.33799e-06
5.06343e-07
8.18476e-08
2.58113e-08
-1.88602e-07
-5.55516e-07
-1.73678e-06
-3.74213e-06
-7.45682e-06
-1.28948e-05
-2.1018e-05
-3.1827e-05
-4.61217e-05
-6.38699e-05
-8.54354e-05
-0.000110736
-0.000139475
-0.000171512
-0.0002058
-0.000242143
-0.000278847
-0.000315677
-0.000350578
-0.000383315
-0.000411879
-0.000436061
-0.000454332
-0.000466549
-0.000471971
-0.000470551
-0.00046249
-0.000447825
-0.000427627
-0.00040203
-0.000372706
-0.000339863
-0.000305424
-0.000269631
-0.000234286
-0.000199632
-0.000167059
-0.000136768
-0.000109558
-8.55797e-05
-6.50079e-05
-4.79316e-05
-3.40028e-05
-2.32552e-05
-1.49985e-05
-9.22988e-06
-5.13051e-06
-2.68197e-06
-1.12666e-06
-4.49843e-07
-8.16992e-08
-2.64292e-08
1.22277e-07
3.88894e-07
1.74825e-06
4.32602e-06
1.21127e-05
2.52996e-05
5.55995e-05
0.000102653
0.000189055
0.000314128
0.000503039
0.000756178
0.00109537
0.00152023
0.00203414
0.00264136
0.00326027
0.00392559
0.00439201
0.00473805
0.0047631
0.00450154
0.00438129
0.00329063
0.00337887
0.00356516
0.00354441
0.00328558
0.00294008
0.00245614
0.00200113
0.00156522
0.00118598
0.000879567
0.000622881
0.000434636
0.000283499
0.000184145
0.000107903
6.52733e-05
3.35887e-05
1.89982e-05
8.34627e-06
4.34553e-06
1.4781e-06
7.00008e-07
1.19978e-07
7.39679e-08
-1.74787e-07
-5.41632e-07
-1.69184e-06
-3.69681e-06
-7.39943e-06
-1.28364e-05
-2.10867e-05
-3.18937e-05
-4.65857e-05
-6.43306e-05
-8.6668e-05
-0.000111964
-0.00014189
-0.000173921
-0.00020976
-0.000246097
-0.000284575
-0.000321398
-0.000358078
-0.000390808
-0.0004209
-0.000445078
-0.000464387
-0.000476601
-0.000482403
-0.000480983
-0.000472576
-0.000457914
-0.0004367
-0.000411108
-0.000380263
-0.000347425
-0.000311196
-0.000275409
-0.000238264
-0.000203616
-0.000169459
-0.000139174
-0.000110751
-8.67769e-05
-6.54168e-05
-4.83438e-05
-3.40144e-05
-2.32687e-05
-1.48934e-05
-9.12594e-06
-5.05494e-06
-2.60686e-06
-1.1022e-06
-4.25513e-07
-4.29745e-08
6.87797e-09
3.02064e-07
5.24983e-07
2.39571e-06
4.84504e-06
1.42586e-05
2.72299e-05
6.15412e-05
0.000108817
0.000202373
0.000327171
0.000526546
0.00077918
0.00113083
0.00155489
0.00208085
0.00268694
0.00331422
0.00397823
0.00444632
0.00479127
0.00481115
0.00454938
0.00442507
0.00332572
0.00341714
0.00360361
0.00358669
0.00332872
0.00298133
0.00249841
0.00203626
0.00160121
0.0012124
0.000906594
0.00064046
0.000452596
0.000293699
0.000194556
0.000112973
7.04411e-05
3.57407e-05
2.11849e-05
9.13199e-06
5.13998e-06
1.71932e-06
9.42375e-07
1.71968e-07
1.25969e-07
-1.59869e-07
-5.2664e-07
-1.6433e-06
-3.64787e-06
-7.33745e-06
-1.27733e-05
-2.11609e-05
-3.19657e-05
-4.70868e-05
-6.48281e-05
-8.79989e-05
-0.00011329
-0.000144497
-0.000176522
-0.000214038
-0.000250367
-0.000290761
-0.000327577
-0.000366176
-0.0003989
-0.000430641
-0.000454814
-0.000475245
-0.000487457
-0.000493668
-0.000492248
-0.000483468
-0.000468809
-0.000446498
-0.000420911
-0.000388422
-0.000355591
-0.000317428
-0.000281649
-0.000242559
-0.000207919
-0.000172052
-0.000141773
-0.000112038
-8.80696e-05
-6.58584e-05
-4.87888e-05
-3.40269e-05
-2.32834e-05
-1.478e-05
-9.0137e-06
-4.97333e-06
-2.52575e-06
-1.07579e-06
-3.9924e-07
-1.15791e-09
4.86825e-08
5.22876e-07
7.4484e-07
3.2408e-06
5.68098e-06
1.68934e-05
2.98223e-05
6.83282e-05
0.000115473
0.000216755
0.000341256
0.000551929
0.000804019
0.00116912
0.00159232
0.00213128
0.00273617
0.00337248
0.00403507
0.00450497
0.00484874
0.00486304
0.00460104
0.00447236
0.00336361
0.00345847
0.00364512
0.00363235
0.00337531
0.00302586
0.00254406
0.0020742
0.00164009
0.00124093
0.000935779
0.000659443
0.000471989
0.000304712
0.000205797
0.000118448
7.60216e-05
3.80645e-05
2.35462e-05
9.98043e-06
5.99787e-06
1.9798e-06
1.20409e-06
2.28108e-07
1.82122e-07
-1.4376e-07
-5.10451e-07
-1.5909e-06
-3.59502e-06
-7.27052e-06
-1.27052e-05
-2.1241e-05
-3.20434e-05
-4.76278e-05
-6.53652e-05
-8.94361e-05
-0.000114722
-0.000147312
-0.00017933
-0.000218656
-0.000254977
-0.000297441
-0.000334249
-0.000374922
-0.000407638
-0.00044116
-0.000465327
-0.00048697
-0.000499179
-0.000505833
-0.000504413
-0.000495229
-0.000480573
-0.000457078
-0.000431497
-0.000397233
-0.000364409
-0.000324158
-0.000288386
-0.000247197
-0.000212564
-0.000174851
-0.000144578
-0.000113429
-8.94656e-05
-6.63352e-05
-4.92694e-05
-3.40403e-05
-2.32992e-05
-1.46576e-05
-8.8925e-06
-4.88521e-06
-2.43817e-06
-1.04727e-06
-3.7087e-07
4.39973e-08
9.38247e-08
7.61317e-07
9.82252e-07
4.15335e-06
6.58367e-06
1.97385e-05
3.26217e-05
7.56571e-05
0.00012266
0.000232285
0.000356465
0.000579338
0.00083084
0.00121047
0.00163273
0.00218574
0.00278932
0.00343538
0.00409645
0.0045683
0.0049108
0.00491908
0.00465682
0.00452341
0.00340453
0.00350309
0.00368995
0.00368165
0.00342561
0.00307396
0.00259335
0.00211517
0.00168206
0.00127174
0.000967295
0.000679941
0.000492931
0.000316605
0.000217936
0.00012436
8.20476e-05
4.05737e-05
2.6096e-05
1.08966e-05
6.92424e-06
2.26107e-06
1.48671e-06
2.88731e-07
2.42759e-07
-1.26365e-07
-4.92969e-07
-1.5343e-06
-3.53795e-06
-7.19826e-06
-1.26317e-05
-2.13275e-05
-3.21274e-05
-4.82121e-05
-6.59453e-05
-9.0988e-05
-0.000116267
-0.000150353
-0.000182363
-0.000223643
-0.000259956
-0.000304654
-0.000341453
-0.000384365
-0.000417073
-0.000452519
-0.00047668
-0.000499631
-0.000511837
-0.000518968
-0.000517548
-0.00050793
-0.000493277
-0.000468503
-0.000442928
-0.000406747
-0.000373932
-0.000331425
-0.000295662
-0.000252205
-0.000217581
-0.000177874
-0.000147608
-0.000114931
-9.0973e-05
-6.68501e-05
-4.97883e-05
-3.40549e-05
-2.33163e-05
-1.45253e-05
-8.76163e-06
-4.79006e-06
-2.34359e-06
-1.01648e-06
-3.40235e-07
9.27578e-08
1.42571e-07
1.0188e-06
1.23862e-06
5.13877e-06
7.55843e-06
2.28107e-05
3.56445e-05
8.35712e-05
0.000130422
0.000249055
0.000372888
0.000608936
0.000859804
0.00125512
0.00167637
0.00224455
0.00284672
0.00350331
0.00416273
0.00463668
0.00497782
0.00497959
0.00471706
0.00457855
0.00344871
0.00355128
0.00373836
0.00373489
0.00347994
0.00312589
0.00264657
0.00215941
0.00172739
0.00130501
0.00100133
0.000702076
0.000515545
0.000329447
0.000231045
0.000130744
8.85548e-05
4.32834e-05
2.88494e-05
1.1886e-05
7.92458e-06
2.5648e-06
1.79189e-06
3.54194e-07
3.08237e-07
-1.07582e-07
-4.74091e-07
-1.47319e-06
-3.47633e-06
-7.12022e-06
-1.25523e-05
-2.14209e-05
-3.2218e-05
-4.8843e-05
-6.65717e-05
-9.26639e-05
-0.000117937
-0.000153635
-0.000185637
-0.000229029
-0.000265332
-0.000312443
-0.000349233
-0.000394562
-0.000427262
-0.000464784
-0.00048894
-0.000513303
-0.000525505
-0.000533152
-0.000531733
-0.000521644
-0.000506995
-0.00048084
-0.000455271
-0.000417022
-0.000384214
-0.000339272
-0.000303518
-0.000257613
-0.000222998
-0.000181138
-0.00015088
-0.000116553
-9.26008e-05
-6.74061e-05
-5.03487e-05
-3.40706e-05
-2.33347e-05
-1.43825e-05
-8.6203e-06
-4.6873e-06
-2.24146e-06
-9.83222e-07
-3.07154e-07
1.45411e-07
1.95209e-07
1.29683e-06
1.51545e-06
6.20287e-06
8.61101e-06
2.61283e-05
3.89087e-05
9.21171e-05
0.000138802
0.000267164
0.000390623
0.000640898
0.00089108
0.00130333
0.00172349
0.00230805
0.0029087
0.00357666
0.0042343
0.00471052
0.00505019
0.00504493
0.00478211
0.00463808
0.00349642
0.00360332
0.00379063
0.00379238
0.0035386
0.00318197
0.00270405
0.00220719
0.00177633
0.00134093
0.00103807
0.000725977
0.000539965
0.000343315
0.0002452
0.000137638
9.55815e-05
4.62094e-05
3.18227e-05
1.29543e-05
9.00479e-06
2.89278e-06
2.12143e-06
4.24883e-07
3.78942e-07
-8.7298e-08
-4.53707e-07
-1.4072e-06
-3.40979e-06
-7.03595e-06
-1.24665e-05
-2.15217e-05
-3.23159e-05
-4.95243e-05
-6.7248e-05
-9.44735e-05
-0.00011974
-0.00015718
-0.000189174
-0.000234844
-0.000271138
-0.000320854
-0.000357634
-0.000405573
-0.000438265
-0.000478029
-0.000502178
-0.000528066
-0.000540265
-0.000548469
-0.00054705
-0.000536453
-0.000521809
-0.000494162
-0.0004686
-0.000428116
-0.000395318
-0.000347746
-0.000312002
-0.000263453
-0.000228847
-0.000184663
-0.000154413
-0.000118304
-9.43585e-05
-6.80065e-05
-5.09538e-05
-3.40875e-05
-2.33547e-05
-1.42283e-05
-8.46769e-06
-4.57635e-06
-2.13118e-06
-9.47313e-07
-2.71432e-07
2.02269e-07
2.52051e-07
1.59707e-06
1.81439e-06
7.35192e-06
9.74763e-06
2.97107e-05
4.24336e-05
0.000101345
0.000147853
0.000286719
0.000409774
0.000675411
0.000924852
0.0013554
0.00177437
0.00237663
0.00297563
0.00365587
0.00431158
0.00479026
0.00512833
0.00511549
0.00485235
0.00470237
0.00358348
0.0036923
0.00386992
0.00386918
0.00362789
0.00326335
0.00279052
0.00228298
0.00184545
0.00140014
0.00109031
0.000768366
0.00057466
0.000369945
0.000264339
0.000151547
0.000104476
5.22165e-05
3.54222e-05
1.51357e-05
1.02837e-05
3.55657e-06
2.51073e-06
5.98544e-07
4.52645e-07
-4.85053e-08
-4.61149e-07
-1.38292e-06
-3.42057e-06
-7.03406e-06
-1.25932e-05
-2.17769e-05
-3.29178e-05
-5.05288e-05
-6.89308e-05
-9.69392e-05
-0.000123281
-0.000161926
-0.000195381
-0.000242627
-0.000280669
-0.000332186
-0.000370816
-0.000420561
-0.000454968
-0.000496282
-0.000521765
-0.000548707
-0.00056165
-0.000570241
-0.000568855
-0.000557905
-0.000542571
-0.000513893
-0.000487022
-0.000444995
-0.000410471
-0.000361081
-0.000323448
-0.000273072
-0.000236665
-0.000190872
-0.000159112
-0.000121771
-9.6717e-05
-6.95657e-05
-5.18245e-05
-3.45522e-05
-2.34829e-05
-1.42368e-05
-8.37112e-06
-4.50907e-06
-2.05756e-06
-9.25379e-07
-2.31634e-07
2.5667e-07
3.91584e-07
1.93919e-06
2.44285e-06
8.68341e-06
1.21617e-05
3.39788e-05
4.99108e-05
0.000112889
0.000166532
0.000312976
0.000447016
0.000724373
0.000984939
0.0014295
0.00185796
0.0024737
0.00308099
0.00377523
0.00442276
0.00491163
0.00523221
0.00522259
0.00497286
0.00482025
0.00371656
0.00382549
0.00395683
0.00395726
0.00373566
0.00337399
0.00291448
0.00241053
0.00195499
0.00151263
0.00117152
0.000851576
0.000627391
0.000423883
0.000294099
0.000181932
0.000118697
6.66921e-05
4.11407e-05
2.09307e-05
1.2236e-05
5.52468e-06
3.05042e-06
1.13954e-06
5.27101e-07
2.6112e-08
-5.26256e-07
-1.44773e-06
-3.59236e-06
-7.20468e-06
-1.31549e-05
-2.23356e-05
-3.45291e-05
-5.21344e-05
-7.25935e-05
-0.000100593
-0.000130195
-0.000168828
-0.000206714
-0.000253945
-0.000297282
-0.000348782
-0.000393016
-0.000442745
-0.000482347
-0.000523647
-0.000553168
-0.000580102
-0.000595298
-0.000603886
-0.000602597
-0.000591651
-0.000574225
-0.000545557
-0.000514725
-0.000472711
-0.000432963
-0.000383589
-0.000340235
-0.000289876
-0.000248014
-0.000202237
-0.000165897
-0.000128568
-0.000100156
-7.30136e-05
-5.31855e-05
-3.59187e-05
-2.38281e-05
-1.4585e-05
-8.39902e-06
-4.53821e-06
-2.06614e-06
-9.3433e-07
-1.86286e-07
3.01861e-07
8.26029e-07
2.37258e-06
4.3567e-06
1.0582e-05
1.87397e-05
4.04699e-05
6.82901e-05
0.000130944
0.00020787
0.000353459
0.000522968
0.000798619
0.00110316
0.00154487
0.00201632
0.00262788
0.00325724
0.00394652
0.00457311
0.00505809
0.0053512
0.00534
0.00515355
0.00500079
0.00385728
0.00396633
0.00408556
0.00408702
0.00386204
0.00350324
0.00304833
0.00254826
0.00207327
0.00163411
0.00125922
0.00094143
0.000684333
0.000482128
0.000326235
0.000214744
0.000134053
8.23235e-05
4.73158e-05
2.71884e-05
1.43443e-05
7.64992e-06
3.63321e-06
1.72374e-06
6.07501e-07
1.06687e-07
-5.96561e-07
-1.51771e-06
-3.77787e-06
-7.38893e-06
-1.37615e-05
-2.2939e-05
-3.6269e-05
-5.38682e-05
-7.65485e-05
-0.000104538
-0.000137662
-0.000176281
-0.000218952
-0.000266166
-0.000315221
-0.000366703
-0.000416988
-0.0004667
-0.000511911
-0.000553198
-0.000587079
-0.000614003
-0.000631633
-0.000640218
-0.000639034
-0.000628092
-0.000608407
-0.000579748
-0.000544639
-0.00050264
-0.000457251
-0.000407894
-0.000358363
-0.000308021
-0.00026027
-0.000214509
-0.000173224
-0.000135908
-0.00010387
-7.67368e-05
-5.46552e-05
-3.73944e-05
-2.42009e-05
-1.4961e-05
-8.42915e-06
-4.56969e-06
-2.07542e-06
-9.43995e-07
-1.37317e-07
3.50659e-07
1.29516e-06
2.84058e-06
6.42335e-06
1.26322e-05
2.58429e-05
4.74793e-05
8.81368e-05
0.00015044
0.00025251
0.000397174
0.000604983
0.000878792
0.00123081
0.00166946
0.00218732
0.00279438
0.00344757
0.00413149
0.00474913
0.0052302
0.00552658
0.005514
0.00534447
0.00519154
0.0039611
0.00407023
0.00428808
0.00429226
0.00405585
0.00370235
0.00319387
0.00269801
0.00217748
0.001741
0.00132764
0.00101142
0.00072322
0.000521835
0.000345046
0.000233894
0.000141881
9.02598e-05
5.0158e-05
3.00595e-05
1.52221e-05
8.53392e-06
3.79755e-06
1.88892e-06
5.80335e-07
7.9709e-08
-3.69133e-07
-1.28994e-06
-3.07011e-06
-6.67982e-06
-1.2818e-05
-2.19921e-05
-3.59554e-05
-5.3548e-05
-7.83378e-05
-0.000106317
-0.00014343
-0.000182035
-0.00023061
-0.000277807
-0.00033426
-0.000385722
-0.000444051
-0.000493744
-0.000546514
-0.000587785
-0.000627557
-0.000654471
-0.000675345
-0.000683927
-0.00068278
-0.000671841
-0.000648976
-0.000620328
-0.000579363
-0.000537379
-0.000484429
-0.000435092
-0.000377477
-0.000327154
-0.000271936
-0.000226192
-0.000178922
-0.00014162
-0.00010552
-7.83969e-05
-5.41614e-05
-3.69071e-05
-2.30734e-05
-1.3837e-05
-7.56858e-06
-3.71057e-06
-1.74969e-06
-6.18697e-07
-1.30273e-07
3.5752e-07
1.41663e-06
2.96139e-06
7.21284e-06
1.34164e-05
2.88629e-05
5.04703e-05
9.76799e-05
0.000159856
0.000277768
0.000421985
0.000660187
0.000932849
0.00133027
0.00176667
0.00233911
0.00294234
0.00365719
0.0043352
0.00502218
0.00549597
0.00580411
0.00578785
0.00548306
0.00533004
0.00407374
0.00418341
0.00449374
0.00449917
0.00426443
0.00391187
0.00335104
0.00285973
0.00228785
0.00185423
0.00139952
0.00108497
0.0007638
0.00056327
0.000363761
0.00025296
0.000148923
9.74139e-05
5.24326e-05
3.23645e-05
1.58431e-05
9.16138e-06
3.88807e-06
1.98033e-06
5.44875e-07
4.44515e-08
-1.07245e-07
-1.02768e-06
-2.25705e-06
-5.86529e-06
-1.17133e-05
-2.08837e-05
-3.5499e-05
-5.30844e-05
-8.01366e-05
-0.000108104
-0.000149536
-0.000188125
-0.000243116
-0.000290293
-0.0003548
-0.000406242
-0.000473337
-0.00052301
-0.000584023
-0.000625277
-0.000671475
-0.000698379
-0.000722787
-0.000731366
-0.000730254
-0.00071932
-0.000692981
-0.000664344
-0.000616989
-0.000575022
-0.000513829
-0.000464512
-0.000398092
-0.000347789
-0.000284449
-0.000238723
-0.000184955
-0.000147668
-0.000107175
-8.00627e-05
-5.35163e-05
-3.6269e-05
-2.17736e-05
-1.2541e-05
-6.59131e-06
-2.73486e-06
-1.37992e-06
-2.49385e-07
-1.2513e-07
3.62466e-07
1.47587e-06
3.01992e-06
7.73106e-06
1.39291e-05
3.11725e-05
5.27494e-05
0.000106099
0.000168143
0.000302769
0.000446525
0.00071774
0.000989209
0.00143479
0.0018688
0.00250007
0.00309919
0.00388358
0.0045552
0.00530933
0.00578188
0.00608379
0.00606562
0.00563406
0.00548029
0.00422848
0.00435341
0.00466459
0.00469212
0.00446163
0.00410872
0.00355123
0.00303696
0.00246338
0.00199437
0.00153837
0.00118476
0.000862208
0.00062634
0.000424733
0.000287221
0.000181721
0.000113449
6.79384e-05
3.91093e-05
2.2413e-05
1.17817e-05
6.51268e-06
2.87985e-06
1.51476e-06
2.69753e-07
1.41211e-07
-8.30576e-07
-2.01663e-06
-5.40214e-06
-1.12252e-05
-2.05488e-05
-3.52088e-05
-5.40801e-05
-8.12971e-05
-0.000112331
-0.000154082
-0.000197841
-0.000253308
-0.000307604
-0.000372711
-0.000432549
-0.000500298
-0.000558549
-0.000620178
-0.000668881
-0.00071556
-0.000747536
-0.000772209
-0.000782583
-0.000781474
-0.000768711
-0.000742113
-0.000708325
-0.000660493
-0.000610938
-0.000549129
-0.000491054
-0.000423977
-0.000365112
-0.000301167
-0.000248229
-0.000193978
-0.000151537
-0.000110719
-8.0663e-05
-5.39477e-05
-3.55988e-05
-2.10579e-05
-1.18482e-05
-5.92571e-06
-2.3901e-06
-1.08281e-06
1.24425e-07
2.20332e-07
1.61934e-06
2.62817e-06
6.29703e-06
1.0957e-05
2.23089e-05
3.97003e-05
7.3382e-05
0.000127366
0.000213418
0.000350115
0.00053254
0.000806873
0.00112886
0.0015765
0.00206453
0.00269765
0.00334331
0.00412964
0.00482916
0.00557833
0.00604823
0.00634439
0.00629504
0.00586236
0.00568779
0.00439557
0.00453699
0.00484907
0.00490047
0.00467457
0.00432129
0.00376985
0.00322835
0.0026601
0.00214754
0.00169541
0.00129431
0.000974307
0.000695803
0.000495706
0.000325871
0.000221129
0.000132384
8.71766e-05
4.74336e-05
3.08286e-05
1.51132e-05
9.86024e-06
4.01094e-06
2.64656e-06
5.35108e-07
4.06626e-07
-6.2495e-07
-1.81045e-06
-4.9369e-06
-1.07572e-05
-2.02594e-05
-3.49125e-05
-5.52806e-05
-8.24847e-05
-0.000117088
-0.000158819
-0.000208595
-0.000264036
-0.000326618
-0.000391693
-0.000461304
-0.000529021
-0.000597255
-0.000658855
-0.000716228
-0.000762884
-0.000800765
-0.000825426
-0.000837888
-0.00083678
-0.000821889
-0.000795303
-0.00075552
-0.000707711
-0.000649324
-0.000587544
-0.000519277
-0.000452232
-0.000383403
-0.000319488
-0.000258156
-0.000203931
-0.000155492
-0.000114693
-8.12107e-05
-5.45081e-05
-3.48767e-05
-2.03427e-05
-1.11593e-05
-5.23961e-06
-2.07722e-06
-7.70542e-07
5.25987e-07
6.21848e-07
3.08143e-06
4.08972e-06
1.04886e-05
1.51293e-05
3.31102e-05
5.03851e-05
9.91348e-05
0.000152711
0.000268066
0.000403705
0.000632916
0.000905102
0.00128805
0.00173206
0.00228581
0.00291346
0.00361642
0.00439534
0.0051279
0.00586879
0.00633584
0.00662579
0.00654278
0.00610888
0.00591185
0.004576
0.00473522
0.00504829
0.00512546
0.00490452
0.00455084
0.00400591
0.00343503
0.00287252
0.00231295
0.00186499
0.00141261
0.00109536
0.000770811
0.000572345
0.000367607
0.000263684
0.000152831
0.000107951
5.64226e-05
3.99161e-05
1.87106e-05
1.34751e-05
5.23234e-06
3.86872e-06
8.21649e-07
6.93233e-07
-4.02907e-07
-1.5878e-06
-4.43451e-06
-1.02519e-05
-1.99469e-05
-3.45925e-05
-5.65769e-05
-8.37671e-05
-0.000122224
-0.000163934
-0.000220207
-0.00027562
-0.000347149
-0.000412192
-0.000492354
-0.000560037
-0.000639052
-0.00070062
-0.000767354
-0.000813987
-0.000858243
-0.000882892
-0.000897609
-0.000896502
-0.000879312
-0.00085274
-0.000806483
-0.000758698
-0.000690774
-0.000629026
-0.000549754
-0.000482743
-0.000403154
-0.000339271
-0.000268876
-0.000214678
-0.000159763
-0.000118984
-8.18022e-05
-5.51132e-05
-3.40969e-05
-1.95703e-05
-1.04154e-05
-4.49873e-06
-1.73935e-06
-4.33341e-07
9.5961e-07
1.05542e-06
4.66026e-06
5.66796e-06
1.50149e-05
1.96347e-05
4.47739e-05
6.19229e-05
0.000126944
0.000180079
0.000327077
0.000461574
0.000741308
0.00101117
0.00145996
0.00190005
0.00252475
0.0031465
0.00391133
0.00468226
0.0054505
0.00618246
0.00664641
0.00692966
0.0068103
0.00637509
0.0061538
0.00481434
0.00497914
0.0052096
0.00529873
0.00511705
0.00477195
0.00426209
0.00368446
0.00311585
0.0025406
0.00206427
0.00159363
0.00124073
0.000899293
0.000666072
0.000448092
0.000316319
0.00019673
0.000133835
7.737e-05
5.13304e-05
2.76456e-05
1.80561e-05
8.71324e-06
5.41466e-06
2.00359e-06
9.2823e-07
-1.92714e-07
-1.70678e-06
-4.44334e-06
-1.04513e-05
-2.02182e-05
-3.55422e-05
-5.81496e-05
-8.71421e-05
-0.00012709
-0.000172179
-0.000230968
-0.00029145
-0.000366444
-0.000437927
-0.000522179
-0.000596946
-0.00068014
-0.000748428
-0.000818791
-0.000870687
-0.000917415
-0.000944941
-0.000960533
-0.000959365
-0.000941285
-0.000911686
-0.00086292
-0.000809653
-0.000738031
-0.000669288
-0.000585749
-0.000511389
-0.000427629
-0.000357141
-0.000283234
-0.000223974
-0.00016655
-0.000122578
-8.39647e-05
-5.57808e-05
-3.42316e-05
-1.9347e-05
-1.02064e-05
-4.3118e-06
-1.71065e-06
-9.06687e-08
1.33942e-06
2.60672e-06
6.65718e-06
1.0122e-05
2.08241e-05
3.12002e-05
5.9569e-05
9.00363e-05
0.000161872
0.000241098
0.000400605
0.000575786
0.000874705
0.00119427
0.00166721
0.00215581
0.0028057
0.00346321
0.00424837
0.00502338
0.00579902
0.00648083
0.00693187
0.00716188
0.0070261
0.00670334
0.00647447
0.00505151
0.00521648
0.00546702
0.00555887
0.00539129
0.00505299
0.00454835
0.00397898
0.00338119
0.00281303
0.00227859
0.00181313
0.00139465
0.00105668
0.000764912
0.000548952
0.000372327
0.000253696
0.0001617
0.000105588
6.37359e-05
4.01461e-05
2.29505e-05
1.36191e-05
6.85807e-06
3.44904e-06
1.05987e-06
-6.04064e-08
-1.66706e-06
-4.40198e-06
-1.01556e-05
-1.99166e-05
-3.58524e-05
-5.84463e-05
-9.01705e-05
-0.000130094
-0.000180953
-0.000239707
-0.000309252
-0.000384202
-0.000467468
-0.00055167
-0.000639565
-0.000722709
-0.000803533
-0.000873854
-0.000935602
-0.000982302
-0.00101521
-0.0010308
-0.00102951
-0.00101144
-0.000976156
-0.000927418
-0.000863904
-0.000792325
-0.000710577
-0.000627089
-0.00053917
-0.00045546
-0.00037294
-0.000299077
-0.000230793
-0.000173404
-0.000124005
-8.5415e-05
-5.50394e-05
-3.3503e-05
-1.8559e-05
-9.4239e-06
-4.14456e-06
-1.54496e-06
1.51823e-07
1.58105e-06
4.55413e-06
8.60217e-06
1.64663e-05
2.71543e-05
4.75568e-05
7.58022e-05
0.000128313
0.000199669
0.000320994
0.000479152
0.00071985
0.00101587
0.0014194
0.00188736
0.00246617
0.00310871
0.00384128
0.00461658
0.00542476
0.00618911
0.00685913
0.00730099
0.00750988
0.00737045
0.00702132
0.00679221
0.00522057
0.00538741
0.00582064
0.0059189
0.00577951
0.00544686
0.00488239
0.00432215
0.003646
0.00308484
0.00247434
0.00201354
0.00152346
0.00118855
0.000837514
0.000622976
0.000407683
0.000289646
0.000177409
0.000121507
7.03986e-05
4.68685e-05
2.56216e-05
1.62997e-05
7.29403e-06
3.87772e-06
9.68146e-07
-1.5517e-07
-4.15573e-07
-3.14831e-06
-6.82589e-06
-1.65789e-05
-3.14913e-05
-5.40711e-05
-8.77263e-05
-0.00012763
-0.000184826
-0.000243556
-0.000324343
-0.000399268
-0.000497945
-0.000582121
-0.000687659
-0.00077078
-0.000868701
-0.000939003
-0.00101428
-0.00106097
-0.00110129
-0.00111687
-0.00111537
-0.0010973
-0.00105417
-0.00100545
-0.000927902
-0.000856342
-0.000756985
-0.000673519
-0.000567545
-0.00048386
-0.000385751
-0.000311914
-0.000232533
-0.000175169
-0.000119887
-8.13181e-05
-4.9655e-05
-2.81338e-05
-1.48414e-05
-5.71468e-06
-2.90356e-06
-3.05297e-07
5.90393e-08
1.49367e-06
5.44756e-06
9.50661e-06
2.03214e-05
3.09976e-05
5.66421e-05
8.48085e-05
0.00014994
0.000221011
0.000371232
0.000528555
0.000825731
0.0011197
0.00160927
0.0020728
0.00275231
0.00338817
0.00422265
0.00498809
0.0058963
0.00664815
0.00739111
0.0078252
0.00799161
0.00784343
0.00724606
0.00701446
0.00546286
0.00565795
0.00609246
0.00624254
0.00611035
0.00580598
0.0052518
0.00467844
0.00401076
0.00340004
0.00279614
0.00226446
0.00177912
0.00136791
0.00101892
0.00073724
0.000522216
0.000354534
0.000242342
0.000155349
0.00010415
6.3543e-05
4.23666e-05
2.38949e-05
1.51341e-05
6.52316e-06
3.61561e-06
4.28216e-07
1.67995e-07
-2.3327e-06
-6.00771e-06
-1.4778e-05
-2.968e-05
-5.25368e-05
-8.61685e-05
-0.000129512
-0.000186668
-0.000253211
-0.000333942
-0.000421132
-0.000519741
-0.000619438
-0.000724903
-0.00082451
-0.000922364
-0.00100723
-0.00108245
-0.00113898
-0.00117926
-0.00119792
-0.00119642
-0.00117397
-0.00113087
-0.0010711
-0.000993605
-0.000906489
-0.000807201
-0.000706639
-0.000600739
-0.000501449
-0.000403408
-0.000317797
-0.000238471
-0.000174258
-0.000119015
-7.81739e-05
-4.65329e-05
-2.57302e-05
-1.24471e-05
-4.73753e-06
-1.92836e-06
8.53678e-07
1.21776e-06
6.08802e-06
1.00391e-05
2.16004e-05
3.20244e-05
5.54874e-05
8.09787e-05
0.000133365
0.000198575
0.000314475
0.000464606
0.000693567
0.000990387
0.00137955
0.00186617
0.00243429
0.00310703
0.0038356
0.0046608
0.0054869
0.00638331
0.0071465
0.00787554
0.00826799
0.00842476
0.00820613