/*--------------------------------*- C++ -*----------------------------------*\
| =========                 |                                                 |
| \\      /  F ield         | OpenFOAM: The Open Source CFD Toolbox           |
|  \\    /   O peration     | Version:  v2106                                 |
|   \\  /    A nd           | Website:  www.openfoam.com                      |
|    \\/     M anipulation  |                                                 |
\*---------------------------------------------------------------------------*/
FoamFile
{
    version     2.0;
    format      ascii;
    arch        "LSB;label=32;scalar=64";
    class       volScalarField;
    location    "0";
    object      expGpCoeffs12;
}
// * * * * * * * * * * * * * * * * * * * * * * * * * * * * * * * * * * * * * //

dimensions      [0 0 0 0 0 0 0];

internalField   nonuniform List<scalar> 
8000
(
0.148632
0.149867
0.150708
0.150208
0.146746
0.140891
0.133267
0.124113
0.114449
0.10423
0.0939871
0.0837573
0.0737705
0.0640582
0.054894
0.0462305
0.0383597
0.0312229
0.0249064
0.019408
0.0145642
0.0104086
0.00658766
0.00313661
-0.00030221
-0.0037427
-0.00732707
-0.0110557
-0.0149158
-0.018903
-0.0229716
-0.0271163
-0.0312838
-0.0354682
-0.0396107
-0.0437049
-0.04769
-0.0515596
-0.0552537
-0.0587665
-0.0620424
-0.0650762
-0.0678198
-0.0702691
-0.0723862
-0.0741678
-0.075588
-0.0766446
-0.0773246
-0.0776271
-0.0775519
-0.0770994
-0.0762816
-0.0751002
-0.0735784
-0.0717189
-0.0695545
-0.0670889
-0.064363
-0.0613812
-0.0581903
-0.0547956
-0.0512484
-0.0475542
-0.043767
-0.0398926
-0.0359858
-0.0320525
-0.0281469
-0.0242746
-0.020487
-0.0167896
-0.0132293
-0.00981085
-0.00654694
-0.00343671
-0.000304087
0.00286705
0.00653068
0.0106531
0.0156999
0.0216352
0.0286707
0.0368067
0.0459054
0.0560327
0.0667831
0.0782097
0.0899358
0.10192
0.113847
0.125673
0.136763
0.147166
0.155759
0.162272
0.166069
0.166528
0.16551
0.164083
0.148533
0.149767
0.150945
0.150449
0.146941
0.141089
0.133349
0.124194
0.114471
0.104249
0.093985
0.0837517
0.0737487
0.0640329
0.0548467
0.04618
0.0382956
0.0311566
0.0248454
0.0193462
0.0145199
0.0103644
0.00657567
0.00312506
-0.000291457
-0.00373151
-0.00731504
-0.0110432
-0.0149075
-0.0188941
-0.0229677
-0.027112
-0.031285
-0.0354689
-0.0396173
-0.043711
-0.047702
-0.0515711
-0.0552709
-0.0587832
-0.0620642
-0.0650976
-0.0678455
-0.0702945
-0.0724147
-0.0741961
-0.0756181
-0.0766747
-0.0773553
-0.0776578
-0.077582
-0.0771296
-0.0763101
-0.0751289
-0.0736044
-0.0717451
-0.0695771
-0.0671119
-0.0643817
-0.0614002
-0.0582045
-0.0548102
-0.0512579
-0.0475641
-0.0437716
-0.0398976
-0.0359854
-0.0320527
-0.0281419
-0.02427
-0.0204775
-0.0167805
-0.0132158
-0.00979783
-0.00653511
-0.00342529
-0.000320383
0.00285037
0.00647123
0.0105937
0.0156153
0.0215517
0.028582
0.0367208
0.0458406
0.0559718
0.0667533
0.0781839
0.0899333
0.101921
0.113877
0.125707
0.136865
0.147269
0.155987
0.162495
0.166337
0.166792
0.165395
0.163968
0.148426
0.149659
0.151202
0.150708
0.147151
0.141304
0.133438
0.124281
0.114495
0.104269
0.0939826
0.0837456
0.0737251
0.0640056
0.0547956
0.0461255
0.0382264
0.031085
0.0247795
0.0192794
0.0144721
0.0103167
0.00656274
0.00311258
-0.000279846
-0.00371942
-0.00730205
-0.0110297
-0.0148985
-0.0188846
-0.0229636
-0.0271072
-0.0312863
-0.0354696
-0.0396244
-0.0437176
-0.047715
-0.0515836
-0.0552895
-0.0588013
-0.0620878
-0.0651208
-0.0678732
-0.0703218
-0.0724455
-0.0742266
-0.0756507
-0.0767071
-0.0773885
-0.077691
-0.0776146
-0.0771622
-0.0763409
-0.0751599
-0.0736324
-0.0717734
-0.0696016
-0.0671367
-0.0644019
-0.0614208
-0.0582199
-0.0548261
-0.0512682
-0.0475749
-0.0437766
-0.0399031
-0.0359851
-0.0320529
-0.0281364
-0.024265
-0.0204672
-0.0167708
-0.0132013
-0.00978378
-0.00652235
-0.00341295
-0.000337979
0.00283236
0.00640702
0.0105295
0.015524
0.0214616
0.0284862
0.036628
0.0457707
0.0559061
0.0667212
0.0781562
0.0899307
0.101923
0.113909
0.125743
0.136974
0.147379
0.156233
0.162736
0.166627
0.167078
0.165271
0.163844
0.14831
0.149543
0.151478
0.150989
0.147378
0.141535
0.133534
0.124375
0.114522
0.104291
0.0939801
0.083739
0.0736996
0.0639761
0.0547405
0.0460666
0.0381516
0.0310077
0.0247083
0.0192072
0.0144205
0.0102652
0.00654876
0.00309911
-0.000267308
-0.00370637
-0.00728802
-0.0110151
-0.0148888
-0.0188743
-0.0229591
-0.0271021
-0.0312877
-0.0354704
-0.0396321
-0.0437247
-0.0477291
-0.0515971
-0.0553096
-0.0588209
-0.0621133
-0.0651458
-0.0679031
-0.0703514
-0.0724787
-0.0742595
-0.0756859
-0.0767421
-0.0774244
-0.0777268
-0.0776498
-0.0771975
-0.0763742
-0.0751933
-0.0736627
-0.071804
-0.069628
-0.0671634
-0.0644236
-0.061443
-0.0582365
-0.0548432
-0.0512792
-0.0475865
-0.0437819
-0.039909
-0.0359847
-0.0320531
-0.0281304
-0.0242597
-0.0204561
-0.0167602
-0.0131856
-0.00976859
-0.00650856
-0.00339963
-0.000356981
0.0028129
0.00633769
0.0104602
0.0154254
0.0213643
0.0283828
0.0365277
0.0456951
0.0558351
0.0666865
0.0781261
0.0899278
0.101925
0.113944
0.125782
0.137092
0.147498
0.156499
0.162997
0.16694
0.167387
0.165136
0.16371
0.148184
0.149418
0.151777
0.151313
0.147623
0.141786
0.133637
0.124477
0.11455
0.104315
0.0939774
0.0837319
0.0736721
0.0639443
0.0546809
0.046003
0.0380709
0.0309243
0.0246315
0.0191293
0.0143648
0.0102095
0.00653368
0.00308456
-0.000253769
-0.00369228
-0.00727287
-0.0109993
-0.0148783
-0.0188631
-0.0229542
-0.0270966
-0.0312892
-0.0354712
-0.0396404
-0.0437323
-0.0477442
-0.0516116
-0.0553313
-0.058842
-0.0621408
-0.0651728
-0.0679354
-0.0703833
-0.0725145
-0.0742951
-0.0757239
-0.07678
-0.0774631
-0.0777654
-0.0776878
-0.0772355
-0.0764101
-0.0752294
-0.0736954
-0.071837
-0.0696565
-0.0671923
-0.0644471
-0.061467
-0.0582544
-0.0548616
-0.0512911
-0.047599
-0.0437877
-0.0399154
-0.0359843
-0.0320533
-0.028124
-0.0242539
-0.0204442
-0.0167488
-0.0131686
-0.0097522
-0.00649368
-0.00338524
-0.0003775
0.0027919
0.00626283
0.0103854
0.0153189
0.0212592
0.0282711
0.0364195
0.0456136
0.0557585
0.066649
0.0780937
0.0899247
0.101927
0.113982
0.125824
0.137219
0.147627
0.156786
0.163278
0.167302
0.167721
0.164991
0.163565
0.148234
0.149481
0.152194
0.151795
0.147971
0.142248
0.1338
0.124722
0.11459
0.104376
0.0939988
0.083781
0.07368
0.0639848
0.0546287
0.0459487
0.0379838
0.0308341
0.0245485
0.0190452
0.0143046
0.0101495
0.00651739
0.00306885
-0.000215048
-0.00365897
-0.00723847
-0.0109709
-0.0148549
-0.0188463
-0.0229433
-0.0270925
-0.0312919
-0.0354808
-0.0396571
-0.0437557
-0.0477749
-0.0516486
-0.0553751
-0.0588916
-0.0621965
-0.0652336
-0.0680013
-0.0704534
-0.0725883
-0.0743721
-0.0758033
-0.0768614
-0.0775453
-0.0778484
-0.0777701
-0.0773175
-0.0764901
-0.0753077
-0.0737704
-0.0719089
-0.0697241
-0.0672558
-0.0645054
-0.0615199
-0.0583015
-0.0549026
-0.0513258
-0.0476267
-0.0438088
-0.039929
-0.0359914
-0.0320526
-0.0281171
-0.0242391
-0.0204234
-0.0167205
-0.013135
-0.00971152
-0.00645452
-0.00333954
-0.000399657
0.00276921
0.00618198
0.0103046
0.0152039
0.0211457
0.0281505
0.0363027
0.0455434
0.0556906
0.0667009
0.0781044
0.089989
0.101957
0.114063
0.125881
0.137508
0.147823
0.157309
0.163671
0.167837
0.168182
0.165056
0.163616
0.148681
0.14995
0.152665
0.152316
0.148502
0.142832
0.134398
0.125358
0.11524
0.105038
0.0946752
0.0844388
0.0743509
0.0646065
0.0552621
0.0465061
0.0385238
0.03125
0.0249771
0.0193515
0.0146352
0.0103954
0.0068041
0.00330234
4.97201e-05
-0.00345568
-0.00703451
-0.010835
-0.0147182
-0.0187834
-0.0228796
-0.0271059
-0.0313045
-0.0355712
-0.0397467
-0.0439214
-0.0479397
-0.0518854
-0.0556112
-0.0591933
-0.0624975
-0.0655919
-0.068359
-0.0708583
-0.0729928
-0.0748123
-0.0762431
-0.0773241
-0.0780079
-0.0783202
-0.0782419
-0.0777842
-0.0769569
-0.0757549
-0.0742179
-0.0723225
-0.0701381
-0.0676224
-0.0648726
-0.0618275
-0.0586097
-0.0551407
-0.0515646
-0.0477871
-0.04397
-0.0400062
-0.0360693
-0.0320436
-0.0281088
-0.0241439
-0.020329
-0.016542
-0.0129572
-0.00945514
-0.00619875
-0.00301107
-0.000110181
0.0031244
0.00648575
0.0107154
0.0155832
0.0216787
0.0286669
0.0369701
0.0462329
0.0564645
0.0674602
0.0789103
0.0907791
0.102753
0.114842
0.126629
0.138239
0.148495
0.157966
0.164261
0.168415
0.168703
0.165575
0.16411
0.149163
0.150456
0.153174
0.152878
0.149076
0.143462
0.135043
0.126045
0.115943
0.105753
0.0954055
0.0851491
0.0750754
0.0652779
0.0559462
0.0471081
0.0391364
0.0317645
0.0254996
0.0197777
0.0150664
0.0107455
0.00715633
0.00358757
0.000335627
-0.00323616
-0.00681426
-0.0106882
-0.0145706
-0.0187154
-0.0228109
-0.0271203
-0.0313181
-0.0356688
-0.0398435
-0.0441003
-0.0481178
-0.052141
-0.0558661
-0.059519
-0.0628225
-0.0659787
-0.0687453
-0.0712955
-0.0734296
-0.0752875
-0.0767181
-0.0778238
-0.0785075
-0.0788297
-0.0787514
-0.0782882
-0.077461
-0.0762378
-0.0747011
-0.0727692
-0.0705852
-0.0680183
-0.0652691
-0.0621596
-0.0589425
-0.0553978
-0.0518224
-0.0479603
-0.044144
-0.0400895
-0.0361534
-0.0320338
-0.0280998
-0.0240412
-0.020227
-0.0163493
-0.0127652
-0.00917829
-0.00592255
-0.00265636
0.000243917
0.00356107
0.00691998
0.0112522
0.016114
0.0223295
0.0293076
0.0377281
0.0469774
0.0573001
0.0682802
0.0797805
0.0916321
0.103612
0.115683
0.127436
0.139029
0.149222
0.158676
0.164898
0.16904
0.169266
0.166135
0.164643
0.149684
0.151003
0.153723
0.153485
0.149695
0.144143
0.13574
0.126786
0.116701
0.106525
0.0961942
0.0859161
0.0758577
0.0660028
0.0566848
0.0477581
0.0397979
0.03232
0.0260638
0.020238
0.015532
0.0111235
0.00753667
0.00389558
0.000644362
-0.00299911
-0.00657643
-0.0105296
-0.0144112
-0.0186421
-0.0227366
-0.0271359
-0.0313328
-0.0357742
-0.0399479
-0.0442934
-0.0483101
-0.0524171
-0.0561414
-0.0598707
-0.0631735
-0.0663964
-0.0691624
-0.0717676
-0.0739013
-0.0758008
-0.077231
-0.0783634
-0.0790469
-0.0793798
-0.0793015
-0.0788323
-0.0780054
-0.0767592
-0.0752229
-0.0732515
-0.071068
-0.0684459
-0.0656972
-0.0625182
-0.0593018
-0.0556754
-0.0521008
-0.0481474
-0.0443319
-0.0401794
-0.0362442
-0.0320233
-0.0280902
-0.0239302
-0.0201169
-0.0161412
-0.0125578
-0.00887933
-0.00562431
-0.00227334
0.000626287
0.00403261
0.00738887
0.011832
0.0166871
0.0230323
0.0299996
0.0385465
0.0477814
0.0582025
0.0691657
0.0807202
0.0925534
0.10454
0.116591
0.128309
0.139882
0.150007
0.159442
0.165586
0.169714
0.169873
0.16674
0.165219
0.150247
0.151594
0.154316
0.15414
0.150364
0.144878
0.136492
0.127587
0.11752
0.107359
0.0970458
0.0867444
0.0767025
0.0667856
0.0574824
0.0484599
0.0405123
0.0329199
0.026673
0.020735
0.0160348
0.0115318
0.00794738
0.00422818
0.000977746
-0.00274313
-0.00631961
-0.0103584
-0.0142391
-0.0185628
-0.0226564
-0.0271528
-0.0313486
-0.035888
-0.0400608
-0.044502
-0.0485177
-0.0527153
-0.0564386
-0.0602505
-0.0635525
-0.0668475
-0.0696128
-0.0722774
-0.0744106
-0.076355
-0.0777849
-0.078946
-0.0796294
-0.0799738
-0.0798956
-0.0794199
-0.0785932
-0.0773223
-0.0757864
-0.0737723
-0.0715893
-0.0689075
-0.0661595
-0.0629055
-0.0596898
-0.0559752
-0.0524014
-0.0483494
-0.0445348
-0.0402765
-0.0363422
-0.032012
-0.0280797
-0.0238103
-0.0199979
-0.0159164
-0.0123339
-0.00855651
-0.00530225
-0.00185974
0.00103919
0.0045418
0.00789521
0.012458
0.017306
0.0237912
0.0307467
0.0394303
0.0486495
0.059177
0.0701218
0.0817349
0.0935481
0.105542
0.117572
0.12925
0.140802
0.150854
0.16027
0.166329
0.170442
0.170529
0.167393
0.165841
0.150854
0.152231
0.154957
0.154848
0.151085
0.145671
0.137305
0.128452
0.118405
0.108259
0.0979654
0.0876388
0.0776147
0.067631
0.0583437
0.0492179
0.0412837
0.0335677
0.0273309
0.0212717
0.0165778
0.0119726
0.00839089
0.00458733
0.00133775
-0.00246672
-0.00604228
-0.0101736
-0.0140533
-0.0184773
-0.0225698
-0.027171
-0.0313658
-0.0360109
-0.0401826
-0.0447272
-0.0487419
-0.0530372
-0.0567596
-0.0606606
-0.0639618
-0.0673346
-0.0700992
-0.072828
-0.0749606
-0.0769534
-0.078383
-0.0795752
-0.0802584
-0.0806153
-0.0805371
-0.0800545
-0.0792279
-0.0779304
-0.0763948
-0.0743347
-0.0721523
-0.0694061
-0.0666588
-0.0633237
-0.0601088
-0.0562989
-0.052726
-0.0485675
-0.0447539
-0.0403814
-0.0364481
-0.0319997
-0.0280685
-0.0236809
-0.0198695
-0.0156737
-0.0120921
-0.00820791
-0.00495449
-0.00141311
0.00148505
0.00509164
0.00844197
0.013134
0.0179744
0.0246107
0.0315535
0.0403846
0.0495869
0.0602292
0.0711543
0.0828306
0.0946223
0.106624
0.118632
0.130267
0.141797
0.151769
0.161163
0.167131
0.171228
0.171238
0.168098
0.166513
0.15151
0.15292
0.155649
0.155612
0.151865
0.146528
0.138182
0.129386
0.11936
0.109232
0.0989584
0.0886046
0.0785998
0.0685438
0.0592738
0.0500363
0.0421166
0.0342672
0.0280413
0.0218512
0.0171641
0.0124486
0.0088698
0.00497516
0.00172649
-0.00216824
-0.00574281
-0.00997396
-0.0138526
-0.0183849
-0.0224763
-0.0271906
-0.0313842
-0.0361436
-0.0403142
-0.0449704
-0.048984
-0.0533849
-0.0571063
-0.0611034
-0.0644037
-0.0678605
-0.0706244
-0.0734224
-0.0755545
-0.0775996
-0.0790288
-0.0802546
-0.0809377
-0.081308
-0.0812298
-0.0807397
-0.0799133
-0.078587
-0.0770519
-0.074942
-0.0727602
-0.0699444
-0.0671979
-0.0637752
-0.0605613
-0.0566485
-0.0530766
-0.0488031
-0.0449905
-0.0404946
-0.0365625
-0.0319865
-0.0280563
-0.0235412
-0.0197308
-0.0154116
-0.011831
-0.00783147
-0.00457895
-0.000930824
0.00196651
0.00568538
0.00903238
0.013864
0.0186961
0.0254956
0.0324248
0.0414152
0.0505992
0.0613655
0.0722693
0.0840139
0.0957822
0.107792
0.119775
0.131366
0.14287
0.152757
0.162128
0.167997
0.172077
0.172003
0.16886
0.167239
0.1527
0.154122
0.156645
0.156587
0.153031
0.147655
0.139501
0.130682
0.120721
0.1106
0.100396
0.0900076
0.0800421
0.0699115
0.0605857
0.0512766
0.0432248
0.0353192
0.0289497
0.0227011
0.017904
0.0131184
0.00949001
0.0055187
0.00225194
-0.00170496
-0.00535297
-0.0096529
-0.0136077
-0.0182146
-0.0223866
-0.0271789
-0.0314549
-0.036293
-0.0405451
-0.0452782
-0.0493699
-0.0538435
-0.0576374
-0.0617008
-0.065066
-0.0685806
-0.0713996
-0.0742454
-0.0764214
-0.0785026
-0.0799631
-0.0812121
-0.0819125
-0.0822923
-0.0822169
-0.0817214
-0.0808827
-0.0795365
-0.0779736
-0.0758295
-0.0736049
-0.0707413
-0.0679381
-0.0644552
-0.0611723
-0.0571885
-0.0535376
-0.0491847
-0.0452853
-0.0407044
-0.0366806
-0.0320166
-0.027993
-0.02339
-0.0194875
-0.0150832
-0.0114147
-0.00733564
-0.00399697
-0.000275204
0.00264208
0.00645545
0.00986607
0.0147867
0.0197588
0.0266302
0.0337369
0.0427907
0.0521304
0.0629746
0.0739323
0.0857543
0.0974555
0.109488
0.12137
0.132934
0.144345
0.154242
0.163386
0.16929
0.173156
0.173104
0.170195
0.168561
0.154515
0.155938
0.157735
0.157691
0.15443
0.149091
0.141389
0.132624
0.122897
0.112833
0.102669
0.0923354
0.0822939
0.0722138
0.0627282
0.0534634
0.0451587
0.0372875
0.0305955
0.024369
0.0192462
0.0144714
0.0105274
0.00655872
0.00302408
-0.000931547
-0.00480323
-0.00910178
-0.0132887
-0.0178942
-0.0223117
-0.0271024
-0.0316294
-0.036466
-0.0409664
-0.045698
-0.0500279
-0.0545
-0.0585148
-0.0625769
-0.0661394
-0.0696529
-0.0726401
-0.0754849
-0.0777948
-0.0798753
-0.0814311
-0.0826797
-0.0834332
-0.0838129
-0.0837457
-0.0832504
-0.0823736
-0.0810278
-0.0793801
-0.0772367
-0.0748821
-0.0720194
-0.0690439
-0.0655621
-0.0620694
-0.0580869
-0.054195
-0.0498436
-0.0456799
-0.0411005
-0.0367977
-0.0321353
-0.0278275
-0.0232259
-0.0190433
-0.0146404
-0.0107049
-0.00662708
-0.00302657
0.000694
0.00393679
0.00774729
0.0115589
0.0164662
0.021855
0.0286987
0.036196
0.0452067
0.0548249
0.0656142
0.0767188
0.0884793
0.100212
0.11218
0.123949
0.135446
0.146534
0.156371
0.164979
0.170843
0.174376
0.174308
0.172216
0.17058
0.156436
0.15786
0.159377
0.159345
0.156108
0.150805
0.143429
0.134721
0.125246
0.115244
0.105123
0.0948492
0.0847255
0.0746999
0.0650417
0.0558247
0.047247
0.0394129
0.0323727
0.02617
0.0206955
0.0159325
0.0116477
0.00768176
0.00385786
-9.63839e-05
-0.0042096
-0.00850665
-0.0129442
-0.0175481
-0.0222309
-0.0270199
-0.0318179
-0.0366527
-0.0414213
-0.0461513
-0.0507383
-0.0552089
-0.0594623
-0.063523
-0.0672986
-0.0708108
-0.0739795
-0.0768234
-0.0792778
-0.0813576
-0.0830162
-0.0842644
-0.0850753
-0.0854548
-0.0853966
-0.0849015
-0.0839835
-0.0826382
-0.080899
-0.0787563
-0.0762613
-0.0733995
-0.070238
-0.0667575
-0.0630382
-0.059057
-0.054905
-0.0505551
-0.046106
-0.0415282
-0.0369242
-0.0322634
-0.0276488
-0.0230488
-0.0185637
-0.0141623
-0.00993831
-0.00586194
-0.00197869
0.00174059
0.00533488
0.00914228
0.013387
0.0182798
0.0241186
0.0309324
0.0388515
0.0478155
0.0577346
0.0684644
0.0797278
0.091422
0.103189
0.115087
0.126733
0.138158
0.148898
0.158669
0.166884
0.172708
0.176205
0.176123
0.174354
0.172716
0.157881
0.159306
0.161993
0.161997
0.158873
0.153645
0.146135
0.137506
0.127939
0.118009
0.107804
0.0975949
0.0872767
0.0773079
0.0673235
0.0581529
0.0491887
0.0413878
0.0339813
0.0277993
0.0220248
0.0172724
0.0127891
0.00882612
0.00483188
0.000879118
-0.0034863
-0.00778173
-0.0125153
-0.0171174
-0.0221166
-0.0269038
-0.0320278
-0.0368609
-0.0419541
-0.0466823
-0.0515821
-0.056051
-0.0605952
-0.0646544
-0.0686898
-0.0722007
-0.0755902
-0.078433
-0.0810622
-0.0831412
-0.0849229
-0.0861706
-0.0870483
-0.0874277
-0.087377
-0.0868821
-0.0859107
-0.084566
-0.0827129
-0.080571
-0.0779039
-0.0750432
-0.0716557
-0.0681764
-0.0641838
-0.0602042
-0.0557399
-0.0513917
-0.0466017
-0.0420256
-0.0370633
-0.0324042
-0.0274259
-0.0228276
-0.0179855
-0.0135858
-0.00902312
-0.00494828
-0.000771801
0.00294607
0.00674434
0.0105485
0.0150421
0.0199222
0.0261395
0.0329276
0.041299
0.0502215
0.0605991
0.0712715
0.0828969
0.0945215
0.106469
0.118289
0.129966
0.141306
0.15208
0.161762
0.170062
0.175801
0.17914
0.179019
0.175938
0.174299
0.159446
0.160876
0.164623
0.164614
0.161837
0.156609
0.149062
0.140518
0.130861
0.121009
0.110702
0.100562
0.0900268
0.0801195
0.0697658
0.0606451
0.0512348
0.0434697
0.0356538
0.0294943
0.0234052
0.0186642
0.0140089
0.0100491
0.00588762
0.00193646
-0.00270082
-0.00699452
-0.0120491
-0.0166494
-0.0219918
-0.0267771
-0.0322549
-0.0370859
-0.0425317
-0.047258
-0.0524974
-0.0569645
-0.0618245
-0.065882
-0.0701996
-0.0737091
-0.0773383
-0.08018
-0.0829989
-0.0850771
-0.0869923
-0.0882395
-0.0891896
-0.0895689
-0.0895261
-0.0890314
-0.088002
-0.0866578
-0.0846809
-0.0825399
-0.0796858
-0.0768263
-0.0731934
-0.0697156
-0.0654263
-0.0614483
-0.0566453
-0.0522988
-0.0471388
-0.0425646
-0.0372136
-0.0325564
-0.0271836
-0.0225872
-0.017358
-0.0129601
-0.00803015
-0.00395697
0.000535492
0.00425186
0.00824761
0.0120484
0.0167554
0.0216217
0.0282351
0.0349955
0.0438753
0.0527532
0.0636648
0.0742754
0.0863142
0.0978638
0.110016
0.121752
0.133478
0.144726
0.155522
0.165106
0.173377
0.179117
0.182035
0.181927
0.177658
0.176014
0.161399
0.162934
0.166691
0.16693
0.164203
0.159257
0.151815
0.143464
0.1339
0.124144
0.113898
0.103733
0.0932435
0.0831846
0.0728471
0.0634634
0.0540352
0.0459348
0.0380865
0.0315832
0.0254594
0.0204236
0.0157578
0.0115467
0.00739158
0.00316179
-0.00149475
-0.00609502
-0.0111725
-0.0161032
-0.0214701
-0.0265989
-0.0321019
-0.0372783
-0.0427493
-0.0478118
-0.0530754
-0.0578594
-0.062742
-0.0670876
-0.0714253
-0.0751854
-0.0788317
-0.081879
-0.0847115
-0.0869436
-0.0888685
-0.0902126
-0.091168
-0.091583
-0.0915409
-0.0910183
-0.0899848
-0.0885481
-0.0865624
-0.0842658
-0.0813983
-0.0783233
-0.0746728
-0.0709255
-0.0666149
-0.0623212
-0.0574938
-0.0527954
-0.0476088
-0.0426577
-0.0372787
-0.0322318
-0.0268305
-0.0218445
-0.0165873
-0.0118121
-0.0068557
-0.0024293
0.00208588
0.00612873
0.0101139
0.014218
0.0189378
0.0241665
0.0308242
0.0379997
0.0469197
0.0561824
0.0671136
0.0779975
0.0900117
0.101681
0.113773
0.125471
0.137117
0.148191
0.158869
0.168186
0.176333
0.181731
0.184593
0.184204
0.179924
0.178165
0.163509
0.165156
0.168924
0.16943
0.166759
0.162116
0.154756
0.146643
0.137168
0.127519
0.117358
0.107154
0.0967433
0.0864966
0.0762302
0.0665222
0.0571528
0.0486391
0.0408333
0.0339023
0.0278038
0.0223897
0.017734
0.0131992
0.0090461
0.00449194
-0.000162386
-0.00511957
-0.0101946
-0.0155101
-0.0208744
-0.026403
-0.0319034
-0.0374818
-0.0429501
-0.0484041
-0.0536652
-0.0588181
-0.0636984
-0.0683793
-0.072715
-0.0767668
-0.0804114
-0.083698
-0.0865292
-0.0889405
-0.0908644
-0.0923214
-0.0932763
-0.093733
-0.0936909
-0.0931358
-0.0921028
-0.0905585
-0.0885738
-0.0860959
-0.0832298
-0.0799039
-0.0762552
-0.0721941
-0.0678856
-0.0632244
-0.0583993
-0.0532912
-0.048107
-0.0427172
-0.0373407
-0.0318404
-0.0264416
-0.021002
-0.0157473
-0.010533
-0.00557892
-0.000741365
0.00377168
0.00819457
0.0121778
0.0166726
0.0213803
0.0270735
0.0336998
0.0413912
0.0502585
0.0599957
0.0708544
0.082077
0.0940049
0.105826
0.117824
0.129484
0.141032
0.151903
0.16248
0.171469
0.179525
0.184555
0.187355
0.186663
0.182371
0.180488
0.165787
0.167555
0.171335
0.17213
0.169519
0.165204
0.157932
0.150076
0.140696
0.131163
0.121094
0.110848
0.100523
0.090073
0.0798835
0.0698251
0.0605193
0.0515592
0.0437993
0.0364064
0.0303355
0.0245128
0.019868
0.0149836
0.0108327
0.00592829
0.00127635
-0.00406624
-0.00913869
-0.0148695
-0.0202312
-0.0261914
-0.0316891
-0.0377015
-0.043167
-0.0490437
-0.0543021
-0.0598534
-0.0647311
-0.0697741
-0.0741076
-0.0784745
-0.0821172
-0.0856622
-0.0884919
-0.0910968
-0.0930197
-0.0945986
-0.095553
-0.0960547
-0.0960126
-0.0954224
-0.0943899
-0.0927294
-0.0907457
-0.0880721
-0.0852075
-0.0816108
-0.0779639
-0.073564
-0.0692577
-0.0641998
-0.0593771
-0.0538266
-0.0486451
-0.0427814
-0.0374077
-0.0314176
-0.0260217
-0.0200923
-0.0148402
-0.00915175
-0.0042002
0.00108134
0.00559207
0.0104253
0.0144064
0.0193231
0.0240179
0.0302125
0.036805
0.0450534
0.0538638
0.0641133
0.0748938
0.0864822
0.098317
0.110302
0.122198
0.133818
0.145259
0.155911
0.16638
0.175015
0.182972
0.187603
0.190337
0.189318
0.185013
0.182996
0.168577
0.170384
0.173036
0.173995
0.171838
0.167757
0.161104
0.153423
0.144419
0.134995
0.125097
0.114894
0.104623
0.0941481
0.083929
0.0737768
0.0643304
0.0552248
0.0472145
0.0396512
0.0332826
0.0272884
0.0223226
0.0172798
0.0128337
0.0077943
0.0028721
-0.00261899
-0.0079639
-0.0138548
-0.0195015
-0.0256281
-0.0314145
-0.0375941
-0.0433433
-0.0493827
-0.0549114
-0.0606161
-0.0657431
-0.0709256
-0.0754801
-0.0799684
-0.0837977
-0.0874422
-0.0904183
-0.0930977
-0.0951218
-0.0967476
-0.0977541
-0.0982731
-0.0982309
-0.0976272
-0.096541
-0.0948358
-0.0927449
-0.0899959
-0.0869724
-0.0832713
-0.0794178
-0.0748872
-0.0703321
-0.0651212
-0.060015
-0.0542938
-0.0488029
-0.0427564
-0.0370568
-0.0308778
-0.02515
-0.0190316
-0.0134521
-0.00758055
-0.00231568
0.00313722
0.00796179
0.0129535
0.0172836
0.0223917
0.0274741
0.0338788
0.0408236
0.0492759
0.05836
0.0687728
0.0796708
0.0913484
0.103153
0.115136
0.126901
0.138435
0.149622
0.160113
0.17012
0.178532
0.185789
0.190149
0.192383
0.19118
0.188136
0.186077
0.171304
0.173113
0.175771
0.176759
0.174841
0.170832
0.164668
0.157089
0.148489
0.139174
0.12946
0.119362
0.10908
0.0987046
0.0883172
0.0782553
0.0684856
0.059453
0.0509762
0.0434626
0.0365632
0.0305951
0.0250625
0.0200262
0.01508
0.0100436
0.00466737
-0.000820433
-0.00664269
-0.0125301
-0.0186776
-0.0248006
-0.0310955
-0.0372714
-0.0435211
-0.0495569
-0.0555632
-0.0612645
-0.0668321
-0.0720115
-0.076957
-0.0814426
-0.0856019
-0.0892442
-0.092479
-0.0951568
-0.0973596
-0.0989844
-0.100082
-0.100601
-0.100559
-0.0999552
-0.098774
-0.0970698
-0.0947896
-0.0920422
-0.0887387
-0.0850398
-0.0808223
-0.0762945
-0.0713016
-0.0660938
-0.0604891
-0.0547713
-0.0487366
-0.0426937
-0.0364225
-0.0302471
-0.0239378
-0.017823
-0.0116703
-0.00580224
9.98612e-06
0.00545963
0.0108091
0.0157979
0.0207228
0.0258235
0.0315895
0.0379621
0.0455335
0.0539245
0.0635251
0.0738483
0.085054
0.0966225
0.108523
0.120388
0.132051
0.143463
0.154334
0.164704
0.174186
0.182486
0.189169
0.193448
0.19541
0.194176
0.191137
0.189076
0.173285
0.175106
0.179549
0.180569
0.179198
0.175254
0.169242
0.161776
0.153251
0.144063
0.134367
0.124387
0.113949
0.103683
0.0928884
0.0829202
0.0725645
0.0636036
0.0545196
0.0470535
0.0396404
0.0336975
0.0278853
0.0228559
0.0176369
0.0126028
0.00675163
0.00126633
-0.00511659
-0.0110013
-0.0177417
-0.0238618
-0.0307622
-0.0369352
-0.0437835
-0.0498166
-0.0563957
-0.0620944
-0.0681917
-0.0733687
-0.0787848
-0.0832682
-0.0878244
-0.091465
-0.0950105
-0.0976871
-0.100104
-0.101728
-0.102935
-0.103454
-0.10341
-0.102807
-0.101511
-0.0998076
-0.0973006
-0.0945544
-0.0909165
-0.0872192
-0.0825681
-0.0780423
-0.0725289
-0.0673234
-0.0611274
-0.0554121
-0.0487338
-0.0426936
-0.0357473
-0.0295746
-0.0225805
-0.0164685
-0.0096432
-0.00377773
0.00267361
0.00812091
0.0140133
0.0189999
0.0242299
0.0293228
0.0354123
0.0417544
0.0499372
0.05827
0.068581
0.0788163
0.0906733
0.102128
0.114422
0.126159
0.137891
0.149164
0.159897
0.17012
0.179416
0.18759
0.194039
0.198248
0.199585
0.198316
0.19329
0.191217
0.175911
0.1779
0.182356
0.183811
0.182513
0.179131
0.17323
0.16628
0.157891
0.149039
0.139469
0.129623
0.119305
0.108964
0.098275
0.0880331
0.0777516
0.0683542
0.0593125
0.0513264
0.0439286
0.0374767
0.0316773
0.0261735
0.0209715
0.0154211
0.00957395
0.00352514
-0.00285334
-0.00933848
-0.0160742
-0.0228127
-0.0297082
-0.0364985
-0.043342
-0.0499724
-0.056547
-0.0628053
-0.0688984
-0.0745808
-0.0799931
-0.0849127
-0.0894656
-0.0934595
-0.0970025
-0.0999377
-0.102353
-0.104131
-0.105338
-0.1059
-0.105856
-0.105182
-0.103887
-0.101997
-0.0994918
-0.0964474
-0.0928119
-0.0887118
-0.084064
-0.0790419
-0.0735324
-0.0677516
-0.0615599
-0.055208
-0.0485343
-0.0418155
-0.034874
-0.0280017
-0.0210125
-0.0142008
-0.00738035
-0.000836337
0.0056105
0.0116956
0.0175839
0.0231589
0.0283673
0.0340069
0.0400799
0.0470086
0.0551719
0.0640838
0.0743419
0.0850221
0.0967875
0.108461
0.120628
0.132332
0.143924
0.154935
0.165523
0.175285
0.184428
0.191979
0.198305
0.201878
0.203136
0.201389
0.196349
0.194094
0.178748
0.180917
0.185365
0.187312
0.186093
0.183317
0.177537
0.171145
0.162891
0.154409
0.144975
0.135276
0.125089
0.114667
0.1041
0.0935554
0.0833801
0.0734979
0.0645369
0.0559701
0.0486231
0.0415926
0.0358141
0.0297703
0.0245724
0.0184643
0.0126216
0.00596428
-0.000409384
-0.00754292
-0.0142735
-0.0216798
-0.0285701
-0.0360269
-0.0428652
-0.0501406
-0.0567102
-0.0635729
-0.0696614
-0.0758897
-0.0812979
-0.0866884
-0.0912379
-0.0956132
-0.0991535
-0.102368
-0.104781
-0.106727
-0.107932
-0.108541
-0.108498
-0.107746
-0.106452
-0.104361
-0.101858
-0.0984914
-0.0948587
-0.0903236
-0.0856792
-0.0801213
-0.0746159
-0.0682141
-0.062027
-0.0549876
-0.0483189
-0.0408673
-0.0339311
-0.0263031
-0.0193192
-0.0117522
-0.00493683
0.0023399
0.00878188
0.0155557
0.0214396
0.02765
0.0328542
0.0391162
0.0451641
0.052759
0.0608604
0.0704185
0.0805784
0.0917527
0.103391
0.115307
0.127329
0.138998
0.150439
0.16116
0.171595
0.180849
0.189841
0.196719
0.202913
0.205797
0.20697
0.204683
0.199652
0.197202
0.182501
0.184697
0.18731
0.189366
0.18885
0.186309
0.181633
0.175463
0.168012
0.159718
0.15074
0.141186
0.131239
0.120914
0.110452
0.0999498
0.0896997
0.0798049
0.0705422
0.0619133
0.0540931
0.046962
0.0405291
0.0343651
0.0285122
0.0223012
0.0159166
0.00914703
0.00223991
-0.00501322
-0.0122965
-0.0198259
-0.0272718
-0.0348514
-0.0422323
-0.0496265
-0.0567102
-0.0636842
-0.0702436
-0.0765724
-0.0823946
-0.0878718
-0.0927658
-0.0972112
-0.101015
-0.104281
-0.106868
-0.108844
-0.110126
-0.110744
-0.110675
-0.10991
-0.108488
-0.106359
-0.103627
-0.100201
-0.0962433
-0.0916278
-0.086572
-0.0809149
-0.0749228
-0.0684062
-0.0616715
-0.0545049
-0.0472438
-0.0396566
-0.0321001
-0.0243324
-0.0167182
-0.00901129
-0.00157321
0.0058392
0.0128794
0.0197808
0.0262762
0.0326043
0.0385646
0.0449651
0.0517651
0.059473
0.0680809
0.0777008
0.0881222
0.0992928
0.110891
0.122733
0.134504
0.146036
0.157097
0.167631
0.177485
0.18651
0.194584
0.201206
0.206182
0.208805
0.209212
0.206807
0.203824
0.201345
0.184514
0.18671
0.191812
0.193889
0.19403
0.19157
0.187278
0.181274
0.174229
0.166103
0.157444
0.148051
0.138177
0.128008
0.117302
0.10694
0.0961897
0.0864088
0.0765154
0.0679658
0.0595019
0.0524144
0.0455045
0.0393522
0.0330338
0.0268282
0.0197516
0.012988
0.00528673
-0.00196002
-0.0100738
-0.0175966
-0.0258836
-0.0334565
-0.0416633
-0.0490511
-0.0569206
-0.0638885
-0.0711702
-0.0774934
-0.0839523
-0.0894247
-0.0948499
-0.0992915
-0.103504
-0.106767
-0.109625
-0.1116
-0.113005
-0.113622
-0.113521
-0.112756
-0.111145
-0.109018
-0.105943
-0.10252
-0.0980748
-0.0934634
-0.0877876
-0.0821355
-0.07541
-0.0688991
-0.0613395
-0.0541792
-0.0460267
-0.0384462
-0.0299591
-0.0221981
-0.0136415
-0.00594146
0.00242312
0.00982901
0.0177533
0.0246486
0.031911
0.0382335
0.0446993
0.0510863
0.0584119
0.0660673
0.075389
0.0849131
0.0959988
0.107033
0.119093
0.13077
0.142669
0.154021
0.164847
0.175197
0.184576
0.193415
0.200965
0.207405
0.211929
0.214464
0.214152
0.211725
0.205997
0.203518
0.187251
0.189665
0.194795
0.19749
0.197745
0.196133
0.192059
0.186891
0.180055
0.172595
0.16411
0.155138
0.145422
0.135411
0.124837
0.114374
0.10371
0.0935909
0.0837378
0.0746761
0.066215
0.0585365
0.0516268
0.0448556
0.0385281
0.031629
0.02452
0.0170029
0.00926293
0.00122048
-0.00693381
-0.0152709
-0.0235988
-0.0319805
-0.0402276
-0.048395
-0.0563028
-0.0639981
-0.0713148
-0.0782912
-0.084781
-0.0908119
-0.0962629
-0.10115
-0.105382
-0.108962
-0.111833
-0.113984
-0.115394
-0.116039
-0.115936
-0.115046
-0.113426
-0.111024
-0.107932
-0.10409
-0.0996204
-0.094459
-0.0887527
-0.0824358
-0.0756741
-0.0684035
-0.0608033
-0.0528112
-0.0446148
-0.0361546
-0.0276215
-0.018958
-0.010355
-0.00175446
0.00665584
0.0149358
0.0229037
0.0306237
0.0379224
0.0450039
0.0514771
0.0585393
0.0658602
0.0741451
0.0834586
0.0934861
0.104517
0.115813
0.127763
0.139408
0.151143
0.162181
0.172817
0.182597
0.191774
0.199817
0.207132
0.212628
0.216912
0.218519
0.218083
0.214994
0.209235
0.206525
0.190629
0.193196
0.197304
0.200474
0.20114
0.200249
0.196811
0.192366
0.186074
0.179193
0.171108
0.162518
0.153109
0.143273
0.132944
0.122444
0.11193
0.101573
0.0917367
0.0822822
0.0737093
0.0655468
0.0583761
0.0510858
0.0444451
0.0370098
0.029636
0.0215365
0.0135402
0.00488267
-0.00353552
-0.0125019
-0.0210941
-0.0301009
-0.0386052
-0.0473751
-0.0555258
-0.0637833
-0.0713215
-0.0788027
-0.0854856
-0.0919481
-0.0975576
-0.102789
-0.107139
-0.110964
-0.113908
-0.116195
-0.117631
-0.118296