/*--------------------------------*- C++ -*----------------------------------*\
| =========                 |                                                 |
| \\      /  F ield         | OpenFOAM: The Open Source CFD Toolbox           |
|  \\    /   O peration     | Version:  v2106                                 |
|   \\  /    A nd           | Website:  www.openfoam.com                      |
|    \\/     M anipulation  |                                                 |
\*---------------------------------------------------------------------------*/
FoamFile
{
    version     2.0;
    format      ascii;
    arch        "LSB;label=32;scalar=64";
    class       volScalarField;
    location    "0";
    object      expGpCoeffs19;
}
// * * * * * * * * * * * * * * * * * * * * * * * * * * * * * * * * * * * * * //

dimensions      [0 0 0 0 0 0 0];

internalField   nonuniform List<scalar> 
8000
(
0.0114284
0.0110792
0.0104634
0.00961051
0.00863303
0.00756874
0.006483
0.00536279
0.00429044
0.00325538
0.0023382
0.00154559
0.000926109
0.000482724
0.000218055
0.000125364
0.000156409
0.000306441
0.000506731
0.000755851
0.00101057
0.00126894
0.00152313
0.00177073
0.00201829
0.00226614
0.00251627
0.00276837
0.0030184
0.0032658
0.00350536
0.00373662
0.00395537
0.00416129
0.00435189
0.004527
0.00468629
0.00482977
0.00495926
0.00507495
0.00518041
0.00527597
0.00536625
0.00545163
0.00553694
0.00562252
0.00571254
0.00580726
0.00590946
0.00601926
0.00613749
0.00626408
0.0063976
0.00653776
0.00668074
0.00682606
0.00696766
0.00710492
0.00723006
0.00734234
0.00743316
0.00750176
0.00753982
0.00754668
0.0075156
0.00744612
0.00733426
0.00717988
0.00698267
0.00674282
0.00646409
0.00614702
0.00579919
0.00542146
0.00502013
0.00459557
0.00413883
0.00365051
0.00311805
0.00254739
0.00196818
0.00138528
0.000886696
0.000474826
0.000251023
0.000220097
0.000424463
0.000869703
0.00151645
0.00235819
0.00330439
0.00434565
0.00537968
0.00641345
0.00738528
0.00830853
0.00915815
0.00991031
0.0104644
0.0107854
0.0114565
0.0111074
0.010476
0.00962333
0.00863858
0.00757415
0.00648412
0.00536345
0.00428485
0.0032492
0.0023263
0.00153309
0.00091134
0.000467443
0.000205364
0.000112352
0.000149746
0.000299671
0.00050531
0.000754412
0.00101113
0.00126948
0.00152341
0.00177097
0.00201802
0.00226584
0.00251623
0.0027683
0.00301885
0.00326622
0.00350624
0.00373747
0.00395656
0.00416245
0.00435321
0.0045283
0.00468754
0.00483101
0.00496026
0.00507594
0.00518104
0.00527659
0.00536645
0.00545182
0.00553673
0.0056223
0.00571202
0.00580673
0.00590878
0.00601856
0.00613683
0.00626341
0.00639717
0.00653733
0.00668076
0.00682606
0.00696831
0.00710554
0.00723144
0.00734371
0.00743531
0.0075039
0.00754266
0.00754951
0.00751892
0.00744944
0.00733778
0.00718341
0.00698602
0.00674621
0.00646692
0.0061499
0.0058012
0.00542352
0.00502184
0.00459734
0.00414219
0.00365393
0.00312116
0.00255053
0.00196572
0.00138285
0.000874868
0.000463166
0.000231636
0.000201146
0.000405267
0.000851119
0.00150403
0.00234638
0.00330166
0.00434341
0.00538441
0.00641846
0.00739093
0.00831428
0.00916733
0.00991934
0.0104903
0.0108113
0.0114868
0.0111378
0.0104897
0.00963717
0.00864456
0.00757999
0.00648532
0.00536416
0.00427882
0.00324252
0.00231344
0.00151959
0.000895393
0.000450942
0.000191659
9.83013e-05
0.000142551
0.000292359
0.000503776
0.000752857
0.00101174
0.00127006
0.00152371
0.00177124
0.00201772
0.00226551
0.00251619
0.00276823
0.00301933
0.00326667
0.0035072
0.00373839
0.00395785
0.00416371
0.00435463
0.0045297
0.0046889
0.00483234
0.00496135
0.00507701
0.00518172
0.00527726
0.00536666
0.00545203
0.00553651
0.00562207
0.00571145
0.00580616
0.00590804
0.00601781
0.00613612
0.00626268
0.00639672
0.00653685
0.00668079
0.00682607
0.00696901
0.00710622
0.00723294
0.00734519
0.00743764
0.00750622
0.00754572
0.00755257
0.00752251
0.00745304
0.00734157
0.00718723
0.00698965
0.00674986
0.00646999
0.00615301
0.00580337
0.00542574
0.00502369
0.00459925
0.00414583
0.00365763
0.00312452
0.00255393
0.00196306
0.00138022
0.000862096
0.000450575
0.0002107
0.000180682
0.000384539
0.000831051
0.00149063
0.00233364
0.00329871
0.004341
0.00538951
0.00642386
0.00739704
0.00832048
0.00917724
0.0099291
0.0105183
0.0108392
0.0115196
0.0111707
0.0105044
0.00965212
0.00865103
0.00758629
0.00648661
0.00536493
0.0042723
0.00323532
0.00229956
0.00150501
0.000878172
0.000433123
0.000176859
8.31287e-05
0.000134781
0.000284464
0.000502119
0.000751179
0.00101239
0.00127069
0.00152404
0.00177153
0.00201741
0.00226516
0.00251614
0.00276814
0.00301986
0.00326716
0.00350823
0.00373938
0.00395924
0.00416506
0.00435617
0.00453121
0.00469036
0.00483378
0.00496252
0.00507816
0.00518246
0.00527798
0.0053669
0.00545225
0.00553627
0.00562182
0.00571085
0.00580554
0.00590724
0.006017
0.00613535
0.0062619
0.00639623
0.00653634
0.00668081
0.00682607
0.00696976
0.00710696
0.00723455
0.00734679
0.00744014
0.00750871
0.00754902
0.00755588
0.00752638
0.00745692
0.00734567
0.00719135
0.00699356
0.00675381
0.0064733
0.00615637
0.00580572
0.00542814
0.00502569
0.00460131
0.00414975
0.00366162
0.00312816
0.0025576
0.00196018
0.00137738
0.000848304
0.000436979
0.000188093
0.000158585
0.000362156
0.000809382
0.00147615
0.00231987
0.00329553
0.00433839
0.00539502
0.0064297
0.00740363
0.00832718
0.00918794
0.00993964
0.0105485
0.0108693
0.011555
0.0112062
0.0105203
0.00966911
0.00865801
0.0075931
0.00648801
0.00536576
0.00426527
0.00322754
0.00228458
0.00148927
0.000859576
0.000413881
0.000160878
6.67447e-05
0.000126391
0.000275939
0.000500331
0.000749366
0.0010131
0.00127137
0.00152439
0.00177184
0.00201706
0.00226477
0.00251609
0.00276805
0.00302043
0.00326768
0.00350934
0.00374046
0.00396073
0.00416653
0.00435784
0.00453285
0.00469193
0.00483533
0.00496379
0.00507941
0.00518325
0.00527876
0.00536715
0.00545249
0.00553601
0.00562154
0.00571019
0.00580487
0.00590638
0.00601612
0.00613453
0.00626105
0.0063957
0.00653579
0.00668084
0.00682608
0.00697057
0.00710775
0.00723629
0.00734851
0.00744285
0.00751141
0.00755259
0.00755944
0.00753056
0.00746111
0.00735009
0.0071958
0.00699779
0.00675808
0.00647687
0.00615999
0.00580825
0.00543074
0.00502785
0.00460354
0.00415399
0.00366594
0.00313208
0.00256157
0.00195708
0.00137432
0.000833411
0.000422298
0.000163681
0.000134723
0.000337985
0.000785982
0.00146051
0.00230501
0.00329209
0.00433557
0.00540097
0.00643601
0.00741074
0.00833441
0.00919976
0.00995102
0.0105812
0.0109019
0.0115916
0.0112412
0.0105473
0.00969267
0.00867159
0.00761385
0.00649241
0.00537558
0.00425834
0.00322177
0.00227043
0.00147671
0.000842498
0.000397976
0.0001443
4.95796e-05
0.000117332
0.000266733
0.000498399
0.000747409
0.00101386
0.0012721
0.00152477
0.00177218
0.00201454
0.0022618
0.00251344
0.00276486
0.00301786
0.00326448
0.0035067
0.00373711
0.00395779
0.00416282
0.00435431
0.00452854
0.00468757
0.00483019
0.00495837
0.00507326
0.00517667
0.00527149
0.00535939
0.00544414
0.00552717
0.00561217
0.00570046
0.00579468
0.005896
0.00600536
0.00612382
0.00624999
0.00638495
0.00652478
0.00667039
0.00681548
0.00696074
0.00709787
0.00722732
0.00733966
0.00743495
0.00750373
0.00754576
0.00755302
0.00752472
0.00745584
0.00734504
0.00719142
0.00699319
0.00675426
0.00647239
0.00615634
0.00580356
0.00542691
0.00502361
0.00460017
0.00415857
0.00367059
0.00313631
0.00256585
0.00195373
0.00137102
0.000817329
0.000406444
0.0001379
0.0001098
0.000317516
0.000764212
0.00144832
0.00229103
0.00329078
0.00433305
0.00541371
0.00644418
0.00742613
0.00834471
0.00921417
0.00996984
0.0106111
0.0109336
0.0116277
0.0112724
0.0105787
0.00971812
0.00869739
0.00764207
0.0065209
0.00541089
0.00429411
0.00326059
0.00230991
0.00151045
0.000876859
0.000418367
0.000165097
5.35239e-05
0.00012081
0.000257536
0.000489847
0.000733855
0.0010001
0.00125674
0.00150751
0.00175207
0.00199188
0.00223492
0.00248651
0.00273271
0.00298566
0.00322615
0.00346832
0.00369176
0.0039124
0.00410986
0.00430132
0.0044677
0.0046267
0.00476158
0.00488973
0.00499728
0.00510067
0.00518879
0.00527667
0.00535544
0.00543846
0.00551822
0.00560649
0.00569615
0.00579745
0.00590291
0.00602134
0.00614428
0.00627922
0.00641663
0.0065622
0.00670585
0.00685108
0.00698796
0.00711739
0.00723087
0.00732614
0.00739757
0.0074396
0.00745102
0.00742272
0.00735941
0.00724862
0.00710172
0.00690353
0.00667219
0.00639038
0.00608248
0.00572975
0.0053615
0.00495828
0.00454307
0.00410833
0.00362734
0.00309791
0.00253185
0.00192018
0.00134745
0.000792853
0.000402878
0.00013491
0.000131016
0.000338297
0.000801599
0.00148503
0.00233123
0.00333034
0.00436464
0.00544495
0.00646421
0.00744607
0.00836044
0.00922973
0.00999163
0.0106327
0.0109605
0.0116667
0.011306
0.0106127
0.00974559
0.00872525
0.00767255
0.00655167
0.00544903
0.00433273
0.00330252
0.00235253
0.00154688
0.000913963
0.000440385
0.000187554
5.77831e-05
0.000125183
0.000247699
0.00047987
0.000716464
0.000982497
0.00123577
0.0014864
0.00172766
0.00196742
0.00220589
0.00245743
0.00269799
0.0029509
0.00318476
0.00342688
0.0036428
0.00386339
0.00405267
0.00424409
0.00440201
0.00456097
0.00468748
0.00481561
0.00491524
0.00501861
0.00509948
0.00518734
0.00525966
0.00534266
0.00541676
0.00550501
0.00558975
0.00569103
0.00579227
0.00591068
0.00603014
0.00616505
0.00629983
0.00644538
0.00658746
0.00673267
0.00686927
0.00699868
0.00711339
0.00720864
0.00728293
0.00732495
0.00734087
0.00731258
0.00725527
0.0071445
0.00700487
0.00680672
0.00658358
0.00630182
0.00600271
0.00565006
0.00529087
0.00488773
0.00448142
0.00404676
0.00357388
0.00304478
0.0024879
0.00187675
0.0013197
0.000765508
0.000399661
0.00013168
0.000153926
0.000360737
0.000841971
0.00152467
0.00237463
0.00337305
0.00439874
0.00547869
0.00648584
0.00746761
0.00837743
0.00924652
0.0100152
0.010656
0.0109896
0.0117087
0.0113423
0.0106493
0.00977526
0.00875533
0.00770546
0.00658489
0.0054902
0.00437443
0.00334779
0.00239855
0.00158623
0.00095403
0.000464161
0.000211805
6.23823e-05
0.000129906
0.000237077
0.000469096
0.000697685
0.000963493
0.00121312
0.0014636
0.0017013
0.001941
0.00217454
0.00242602
0.00266051
0.00291335
0.00314006
0.00338213
0.00358992
0.00381046
0.00399092
0.0041823
0.00433107
0.00449
0.00460747
0.00473557
0.00482664
0.00492999
0.00500304
0.00509088
0.00515623
0.00523922
0.0053072
0.00539543
0.00547485
0.00557611
0.0056728
0.00579118
0.00590688
0.00604177
0.00617371
0.00631923
0.00645962
0.0066048
0.00674111
0.00687049
0.00698653
0.00708176
0.00715914
0.00720115
0.00722193
0.00719364
0.00714281
0.00703207
0.00690028
0.00670217
0.00648789
0.00620619
0.00591657
0.005564
0.0052146
0.00481155
0.00441484
0.00398028
0.00351616
0.0029874
0.00244045
0.00182986
0.00128974
0.00073598
0.000396188
0.000128193
0.000178666
0.000384969
0.000885566
0.00156747
0.00242151
0.00341918
0.00443557
0.00551512
0.00650919
0.00749087
0.00839576
0.00926466
0.0100406
0.0106811
0.011021
0.0117542
0.0113815
0.0106889
0.0098073
0.00878782
0.007741
0.00662077
0.00553467
0.00441947
0.00339668
0.00244825
0.00162872
0.000997296
0.000489836
0.000237992
6.73488e-05
0.000135006
0.000225607
0.000457462
0.000677407
0.000942972
0.00118866
0.00143899
0.00167283
0.00191248
0.00214069
0.00239211
0.00262003
0.00287282
0.0030918
0.00333381
0.00353282
0.00375331
0.00392424
0.00411557
0.00425447
0.00441336
0.00452107
0.00464914
0.00473097
0.00483429
0.0048989
0.00498672
0.00504454
0.00512751
0.00518889
0.0052771
0.00535079
0.00545202
0.00554379
0.00566214
0.00577378
0.00590864
0.00603753
0.00618301
0.00632158
0.00646672
0.00660272
0.00673206
0.00684955
0.00694475
0.00702547
0.00706747
0.00709349
0.00706521
0.00702138
0.00691067
0.00678734
0.00658928
0.00638456
0.00610293
0.00582356
0.00547107
0.00513224
0.00472928
0.00434294
0.0039085
0.00345382
0.00292544
0.0023892
0.00177921
0.00125739
0.000704095
0.000392437
0.000124427
0.00020538
0.000411136
0.000932641
0.0016137
0.00247213
0.00346899
0.00447534
0.00555445
0.00653441
0.00751599
0.00841557
0.00928425
0.010068
0.0107083
0.0110549
0.0118032
0.0114239
0.0107316
0.0098419
0.0088229
0.00777938
0.00665951
0.00558268
0.0044681
0.00344947
0.00250192
0.00167459
0.00104402
0.000517561
0.00026627
7.27117e-05
0.000140512
0.000213221
0.000444899
0.00065551
0.000920812
0.00116225
0.00141241
0.00164209
0.00188167
0.00210414
0.0023555
0.00257632
0.00282904
0.00303968
0.00328162
0.00347116
0.0036916
0.00385223
0.00404351
0.00417175
0.0043306
0.00442777
0.00455581
0.00462766
0.00473096
0.00478644
0.00487424
0.00492394
0.00500689
0.00506114
0.00514933
0.00521681
0.00531802
0.00540448
0.00552281
0.00563006
0.00576488
0.00589046
0.00603591
0.00617251
0.00631761
0.00645327
0.00658258
0.00670162
0.0067968
0.00688113
0.00692312
0.00695479
0.00692652
0.00689025
0.00677957
0.00666539
0.00646738
0.00627298
0.00599142
0.00572312
0.00537072
0.00504331
0.00464045
0.00426531
0.00383098
0.00338651
0.00285853
0.00233387
0.00172453
0.00122245
0.000669664
0.000388387
0.00012036
0.000234228
0.000439392
0.000983476
0.00166361
0.00252678
0.00352278
0.00451829
0.00559693
0.00656164
0.00754311
0.00843695
0.00930541
0.0100976
0.0107376
0.0110915
0.0118562
0.0114696
0.0107777
0.00987926
0.00886078
0.00782082
0.00670134
0.00563453
0.00452062
0.00350648
0.00255987
0.00172413
0.00109447
0.000547499
0.000296805
7.85029e-05
0.000146459
0.000199846
0.000431332
0.000631865
0.000896882
0.00113374
0.00138371
0.00160889
0.00184841
0.00206466
0.00231596
0.00252912
0.00278177
0.0029834
0.00322528
0.00340459
0.00362496
0.00377447
0.0039657
0.00408243
0.00424123
0.00432703
0.00445503
0.0045161
0.00461937
0.00466501
0.00475278
0.00479371
0.00487663
0.00492318
0.00501135
0.00507214
0.00517332
0.00525405
0.00537234
0.00547486
0.00560964
0.00573166
0.00587707
0.00601154
0.0061566
0.0062919
0.00642117
0.00654189
0.00663704
0.00672526
0.00676724
0.00680503
0.00677676
0.00674866
0.006638
0.0065337
0.00633574
0.00615249
0.00587101
0.00561467
0.00526236
0.00494727
0.00454453
0.00418148
0.00374727
0.00331382
0.00278628
0.00227412
0.00166548
0.00118473
0.000632483
0.000384013
0.000115969
0.000265379
0.000469904
0.00103837
0.00171751
0.00258581
0.00358086
0.00456466
0.0056428
0.00659105
0.00757239
0.00846004
0.00932825
0.0101296
0.0107693
0.011131
0.0119054
0.011515
0.0108372
0.00993509
0.00892414
0.00788004
0.0067713
0.00570687
0.00460223
0.00359073
0.00265092
0.00180772
0.00117338
0.000610084
0.000340821
0.000104544
0.000153072
0.000191472
0.000412565
0.000603481
0.000865468
0.00109718
0.00134428
0.0015658
0.00179752
0.00200945
0.00225512
0.00246294
0.00270868
0.00290404
0.00313805
0.00331025
0.00352206
0.00366385
0.00384617
0.0039549
0.00410487
0.00418276
0.00430237
0.00435597
0.00445154
0.00449037
0.00457127
0.00460611
0.00468298
0.0047242
0.00480704
0.00486318
0.00495968
0.0050364
0.00515059
0.00524985
0.00538117
0.0055007
0.00564351
0.00577648
0.00592002
0.00605505
0.00618419
0.00630602
0.00640266
0.00649359
0.00653884
0.00658087
0.00655773
0.00653526
0.00643145
0.00633401
0.00614436
0.00596885
0.00569681
0.00544877
0.00510663
0.00480013
0.00440718
0.00405255
0.00363709
0.0032126
0.00269301
0.00219476
0.00159294
0.00113323
0.000598428
0.000376202
0.000135783
0.000311147
0.000537789
0.00112563
0.00180616
0.00267961
0.00366171
0.00463749
0.00570029
0.00664051
0.00761011
0.00849798
0.00936311
0.0101671
0.010795
0.0111608
0.0119497
0.0115594
0.010902
0.0100008
0.00900237
0.0079598
0.00687788
0.00581585
0.00474379
0.00373567
0.00280552
0.00196593
0.0013034
0.000743038
0.0004144
0.000179696
0.000160892
0.000199454
0.000372907
0.000563292
0.000803213
0.00103442
0.00127162
0.00149298
0.00171358
0.00192544
0.00215428
0.00236204
0.00258703
0.00278233
0.00299276
0.00316489
0.00335098
0.00349272
0.00364828
0.00375697
0.00388037
0.00395824
0.00405261
0.00410619
0.00417863
0.00421744
0.00427769
0.00431251
0.00437118
0.00441239
0.00447922
0.00453535
0.00461774
0.00469443
0.00479632
0.00489555
0.00501656
0.00513606
0.00527107
0.00540399
0.00554302
0.00567801
0.00580678
0.00592857
0.00602974
0.00612064
0.00617581
0.00621783
0.0062101
0.00618764
0.00610439
0.00600697
0.00584227
0.00566683
0.00542308
0.00517513
0.00486346
0.00455705
0.00419343
0.00383891
0.00344625
0.00302213
0.00253066
0.00203369
0.00148527
0.00102698
0.00057876
0.000356829
0.00021554
0.000389189
0.000686474
0.00127101
0.00197065
0.00284034
0.00379213
0.00476493
0.00577738
0.0067161
0.00765748
0.00854463
0.00940432
0.0102077
0.010813
0.0111787
0.0120082
0.0116181
0.0109919
0.0100915
0.00908897
0.008048
0.00699297
0.00593353
0.00489666
0.00389219
0.00297246
0.00213676
0.00144381
0.000886607
0.000493854
0.000260849
0.000169336
0.000208074
0.000330082
0.000519894
0.000735988
0.000966645
0.00119315
0.00141433
0.00162294
0.00183472
0.00204539
0.00225307
0.00245567
0.0026509
0.00283586
0.00300794
0.00316624
0.00330794
0.00343459
0.00354324
0.00363796
0.0037158
0.0037829
0.00383646
0.00388392
0.00392272
0.00396067
0.00399548
0.00403449
0.00407569
0.00412522
0.00418133
0.0042485
0.00432516
0.00441377
0.00451296
0.00462285
0.0047423
0.00486889
0.00500177
0.00513593
0.00527087
0.00539923
0.00552098
0.00562704
0.00571791
0.0057838
0.0058258
0.00583472
0.00581226
0.00575121
0.00565383
0.00551607
0.00534069
0.0051275
0.00487963
0.00460087
0.00429457
0.00396261
0.00360822
0.00324017
0.00281647
0.00235535
0.00185977
0.001369
0.000912247
0.000557521
0.00033591
0.000301665
0.000473462
0.00084703
0.00142799
0.00214826
0.00301391
0.00393295
0.00490254
0.00586063
0.00679773
0.00771004
0.00859644
0.00946079
0.0102636
0.0108426
0.0112082
0.0122441
0.0118545
0.0111252
0.0102267
0.00919458
0.00815582
0.00712083
0.0060643
0.00504329
0.00404217
0.00310482
0.00227196
0.00152593
0.000970347
0.000510961
0.000278103
0.000133848
0.000171816
0.000267049
0.000455977
0.000663472
0.00089354
0.00111175
0.00133274
0.00152535
0.00173706
0.00192913
0.00213674
0.00231785
0.002513
0.00267252
0.00284454
0.00297398
0.00311562
0.00321107
0.00331968
0.00338234
0.00346015
0.00349588
0.00354943
0.0035675
0.00360629
0.00361765
0.00365245
0.00366802
0.0037092
0.0037384
0.00379449
0.0038443
0.00392094
0.00399519
0.00409434
0.00419321
0.00431262
0.00443218
0.00456501
0.00469695
0.00483184
0.00496358
0.00508529
0.00520079
0.00529163
0.00537304
0.00541502
0.00544502
0.00542257
0.00538714
0.0052898
0.00518092
0.0050056
0.0048232
0.00457542
0.00432815
0.00402197
0.00372365
0.00336939
0.00303591
0.00261262
0.00217553
0.00168136
0.00121674
0.000762061
0.000463169
0.000243408
0.000297616
0.000469743
0.000938085
0.00151727
0.00229903
0.00316144
0.00408646
0.00505253
0.00597311
0.00690777
0.00777532
0.00866059
0.00954426
0.0103459
0.0110365
0.0114018
0.0124969
0.0121065
0.0112622
0.0103502
0.00930777
0.00826679
0.00725892
0.00620553
0.00519994
0.00420241
0.0032441
0.00241423
0.00161027
0.00105634
0.00052253
0.000289763
8.83362e-05
0.000125449
0.000195498
0.000383468
0.000585184
0.000814615
0.00102446
0.00124526
0.00141999
0.00163161
0.00180366
0.00201119
0.00216923
0.00236431
0.00249648
0.00266842
0.00276675
0.00290833
0.00297009
0.00307865
0.00310664
0.00318442
0.00318618
0.0032397
0.00322592
0.00326468
0.00324721
0.003282
0.00327213
0.0033133
0.00332045
0.00337652
0.00340754
0.00348414
0.0035429
0.00364201
0.00372904
0.0038484
0.00396048
0.00409325
0.00422296
0.00435779
0.00449338
0.00461504
0.00474097
0.00483177
0.00493016
0.00497213
0.00502504
0.00500261
0.00499494
0.00489764
0.00481993
0.00464468
0.0044954
0.00424772
0.00403425
0.00372818
0.00346616
0.00311204
0.00281876
0.00239592
0.00198355
0.00149091
0.00104686
0.000594424
0.000349953
0.000132226
0.00028363
0.000456203
0.00103133
0.00160871
0.00245874
0.00331771
0.00425236
0.00521463
0.00609477
0.00702675
0.0078416
0.00872911
0.00961753
0.0104323
0.0112431
0.0116091
0.0126418
0.0122265
0.0113831
0.0104369
0.00939608
0.00835742
0.0073551
0.00632676
0.00532826
0.00435347
0.00339605
0.00256385
0.00175715
0.00116822
0.000627246
0.000337278
0.000127748
0.000107801
0.000173717
0.000321764
0.000522147
0.000727859
0.000935842
0.00113768
0.00130964
0.0014995
0.00166992
0.00185332
0.00200951
0.00217818
0.00230817
0.00245212
0.00254798
0.0026612
0.00272031
0.00280161
0.00282689
0.00287984
0.00287895
0.00291088
0.00289462
0.00291514
0.00289543
0.00291467
0.00290282
0.00293003
0.00293547
0.00297797
0.00300752
0.00307012
0.00312764
0.00321218
0.00329824
0.0034031
0.00351456
0.00363432
0.00376381
0.00388898
0.00402481
0.00414204
0.00426873
0.00436186
0.00446153
0.00451348
0.00456816
0.00456345
0.00455794
0.00448543
0.00441018
0.00426555
0.0041189
0.00390614
0.00369537
0.00342697
0.00316787
0.00285315
0.00256504
0.00218123
0.00177403
0.00133095
0.000891604
0.000512552
0.000277568
0.000150191
0.000315842
0.00056586
0.00115169
0.00176485
0.0026183
0.0034651
0.0043977
0.00531798
0.00618815
0.00708189
0.00789077
0.00877396
0.00966174
0.010516
0.0113261
0.0117203
0.0127983
0.012356
0.0115137
0.0105306
0.00949144
0.00845529
0.00745472
0.00645748
0.00546164
0.00451432
0.00356031
0.00272505
0.00192173
0.00129045
0.000751937
0.000392812
0.000184334
9.50645e-05
0.000160802
0.000259193
0.000458892
0.00063378
0.000841289
0.0010189
0.00119078
0.00135531
0.00152565
0.00168098
0.0018371
0.00197504
0.00210497
0.00221635
0.00231217
0.00239239
0.00245147
0.00250105
0.00252632
0.00255036
0.00254948
0.00255628
0.00254003
0.0025393
0.00251961
0.00252074
0.0025089
0.00251987
0.0025253
0.00255203
0.00258156
0.00262787
0.00268537
0.00275293
0.00283896
0.00292695
0.00303835
0.00314299
0.00327241
0.00338634
0.00352211
0.00363418
0.00376081
0.00385667
0.00395628
0.00401987
0.00407452
0.00409043
0.00408493
0.00404126
0.00396605
0.00385704
0.00371045
0.0035383
0.00332764
0.00310305
0.00284408
0.00257518
0.00228721
0.00195332
0.00154723
0.00116846
0.000730851
0.000443095
0.000209148
0.00019147
0.000356353
0.000699921
0.0012831
0.00193958
0.00278945
0.00362177
0.00455114
0.00542047
0.00628876
0.00713556
0.00794385
0.00882239
0.00970948
0.0106064
0.0114156
0.0118403
0.0129673
0.0124958
0.0116547
0.0106318
0.00959441
0.00856098
0.0075623
0.00659863
0.00560566
0.00468801
0.00373768
0.00289913
0.00209944
0.00142243
0.000886585
0.000452781
0.000245438
8.13108e-05
0.000146857
0.000191626
0.000390586
0.00053219
0.000739186
0.00089064
0.00106242
0.00119961
0.00136987
0.00149489
0.00165092
0.00175569
0.00188555
0.00196176
0.00205753
0.00210211
0.00216117
0.00217649
0.00220174
0.00219458
0.0021937
0.00217337
0.00215713
0.00213346
0.00211377
0.00209537
0.00208354
0.00207696
0.00208239
0.00209207
0.0021216
0.00215031
0.00220778
0.00225702
0.002343
0.00241278
0.00252413
0.00261243
0.00274179
0.00284357
0.00297928
0.00308578
0.00321234
0.00331114
0.0034107
0.00348684
0.00354146
0.00357965
0.00357415
0.00356163
0.00348646
0.00341591
0.0032694
0.0031411
0.00293054
0.00275328
0.00249443
0.00227501
0.00198721
0.00170721
0.00130231
0.000992986
0.000557264
0.000368092
0.000135265
0.000236045
0.000400099
0.000844686
0.00142501
0.00212826
0.00297427
0.00379095
0.00471684
0.00553114
0.00639741
0.00719352
0.00800118
0.00887468
0.00976102
0.0107041
0.0115124
0.01197
0.0130113
0.0125314
0.0117233
0.0107034
0.0096703
0.00864301
0.00765252
0.00670437
0.00574317
0.00483967
0.00392565
0.0030883
0.00230657
0.0016135
0.00106028
0.000597788
0.000337686
0.000143232
0.000145191
0.000166433
0.000315322
0.000440835
0.000617684
0.000756957
0.000908004
0.00103448
0.00118233
0.00129548
0.00142774
0.00151953
0.00162599
0.00168844
0.00176238
0.00179304
0.00183314
0.00183509
0.0018453
0.00182596
0.00181434
0.00178343
0.00176032
0.0017277
0.00170376
0.00167774
0.00166241
0.00164899
0.00164971
0.00165274
0.00167469
0.00169654
0.00174269
0.00178475
0.00185581
0.00191846
0.00201246
0.00209435
0.002206
0.00230301
0.00242314
0.00252744
0.00264313
0.00274303
0.00283853
0.00291954
0.00297827
0.00302513
0.00303237
0.00303201
0.00297779
0.00292227
0.0028038
0.00269266
0.00251567
0.00235692
0.00213336
0.00193332
0.00167979
0.00142492
0.00107684
0.000801202
0.000455159
0.000309782
0.000175125
0.000324543
0.000555487
0.00103936
0.00162819
0.00234777
0.00315505
0.0039629
0.00483293
0.00562319
0.00645025
0.00722491
0.00803562
0.00890413
0.0098028
0.0107465
0.0115153
0.0119825
0.0131124
0.0126329
0.0118151
0.0107963
0.00973232
0.00870562
0.0077338
0.00678646
0.00587842
0.00497741
0.00411869
0.00328537
0.00252235
0.00183384
0.0012439
0.00078509
0.000437874
0.000245093
0.000143523
0.000164671
0.000229761
0.000354585
0.000478532
0.000617545
0.000732569
0.000858965
0.000969516
0.0010826
0.0011757
0.00126744
0.00133487
0.00139728
0.00143428
0.00146492
0.00147243
0.00147438
0.00145826
0.00143893
0.00140815
0.00137726
0.00134162
0.00130902
0.00127716
0.00125116
0.00122946
0.00121604
0.00120851
0.00121154
0.00122051
0.00124235
0.00126928
0.00131131
0.00135717
0.00141978
0.00148472
0.00156657
0.00164884
0.0017458
0.00184059
0.00194483
0.00204346
0.00214331
0.00223346
0.00231441
0.00238155
0.00242838
0.00245825
0.0024579
0.00243954
0.00238405
0.0023126
0.00220152
0.00208005
0.0019214
0.00175739
0.00155747
0.0013661
0.00111178
0.000864005
0.000590027
0.00039481
0.000250331
0.000277117
0.000424873
0.000769137
0.00124877
0.00186547
0.0025801
0.00333732
0.00414148
0.00492177
0.00571078
0.00646772
0.00724331
0.00803987
0.00890912
0.00984971
0.0107927
0.0115847
0.0120516
0.0134727
0.0129907
0.0119388
0.0109039
0.00977864
0.00874858
0.0078112
0.00686314
0.00601862
0.00512013
0.00430157
0.00347189
0.00270142
0.0020163
0.00136181
0.000905177
0.000463057
0.000270626
8.8082e-05
0.000108487
0.000122874
0.000246862
0.000332906
0.000471644
0.000546293
0.000672539
0.000744509
0.000857456
0.000911498
0.00100312
0.00103007
0.0010924
0.00108941
0.00112
0.00109064
0.00109258
0.00104532
0.00102601
0.000971472
0.000940635
0.000888653
0.000856137
0.000813575
0.00078763
0.000757609
0.000744253
0.000726945
0.000729996
0.000724446
0.000746242
0.000752137
0.000794132
0.000812869
0.000875374
0.000909704
0.0009914
0.00104376
0.00114056
0.00121098
0.00131504
0.00139932
0.00149905
0.00158808
0.00166894
0.00174963
0.0017964
0.00185405
0.00185372
0.00187543
0.00182003
0.00179816
0.00168723
0.00162194
0.00146349
0.00136362
0.00116394
0.00104909
0.000795343
0.000624201
0.000352081
0.000253091
0.000110484
0.000273412
0.000421335
0.000904721
0.00138185
0.00207566
0.00278635
0.00353233
0.00433258
0.00503798
0.00582505
0.00648379
0.00726154
0.00800613
0.00887974
0.00989342
0.0108546
0.011902
0.0123719
0.0136419
0.0131158
0.0120652
0.0109582
0.00983345
0.00877644
0.00783805
0.00691395
0.00607092
0.0052242
0.00440796
0.00362683
0.00285948
0.00219
0.00153792
0.00104792
0.000604869
0.00034069
0.00015534
9.62585e-05
0.000107774
0.000168761
0.000253269
0.000347104
0.000423368
0.000512061
0.00058398
0.000662651
0.000716656
0.000777106
0.000804037
0.000840446
0.000837457
0.00085016
0.000820827
0.000815477
0.000768251
0.000753582
0.000699081
0.000684026
0.000632079
0.000623243
0.00058071
0.000580965
0.000550964
0.000559783
0.000542487
0.000557372
0.000551825
0.000570452
0.000576343
0.000598264
0.000616988
0.000643851
0.000678158
0.000712982
0.000765303
0.000810455
0.000880832
0.000935746
0.00101997
0.00107983
0.0011688
0.00122419
0.00130482
0.00134338
0.00140099
0.00141018
0.00143188
0.00140229
0.00138044
0.00130896
0.00124372
0.00113532
0.00103553
0.000896361
0.000777993
0.000601787
0.000434062
0.000270276
0.000177388
0.000161329
0.000329887
0.000578134
0.00106365
0.00157325
0.00226432
0.00293488
0.0036776
0.00439769
0.00510115
0.00581416
0.00647233
0.00722351
0.00797074
0.00888736
0.00990153
0.0109557
0.012002
0.0125254
0.0138246
0.0132509
0.0122001
0.0110169
0.00989263
0.00880653
0.00786705
0.00696881
0.00612544
0.00533625
0.00452151
0.00379413
0.00302981
0.00237757
0.00172904
0.00120227
0.000762006
0.000418534
0.000234404
8.6675e-05
9.8106e-05
8.75411e-05
0.000171664
0.000214429
0.000290629
0.00033877
0.000410636
0.000452293
0.000506257
0.00053305
0.000559961
0.000568379
0.000565392
0.000558779
0.000529468
0.000516252
0.000469061
0.000459402
0.000404942
0.000406928
0.00035502
0.000371754
0.000329254
0.000357798
0.00032782
0.000360585
0.000343302
0.000370965
0.000365422
0.000380628
0.000386514
0.000386758
0.000405468
0.000393845
0.000428125
0.000412336
0.000464618
0.000453997
0.00052432
0.00052617
0.000610332
0.00062714
0.000716039
0.000743932
0.000824505
0.000854194
0.00091176
0.00093123
0.00095291
0.000951197
0.000929363
0.000900497
0.000835305
0.000780954
0.000681232
0.000607417
0.000489153
0.000401155
0.000234351
0.000193528
0.000101423
0.000226453
0.000393994
0.000753067
0.00123546
0.00178084
0.00246804
0.00309454
0.00383446
0.00446594
0.00516894
0.00579974
0.00645995
0.00718244
0.00793253
0.00889558
0.00991029
0.0110639
0.0121099
0.012691
0.0137411
0.0131616
0.0122509
0.011069
0.0099324
0.00884321
0.00786652
0.00697237
0.00613909
0.00536092
0.00460183
0.00388642
0.00319183
0.00254572
0.00194678
0.00141578
0.00097013
0.000612924
0.000364189
0.000198425
0.000123222
9.59196e-05
0.000114836
0.000145341
0.000186339
0.000226669
0.000269672
0.000304201
0.000335921
0.00035624
0.000370386
0.000373429
0.000369899
0.000359586
0.000344352
0.000329636
0.000312185
0.000303493
0.00029323
0.000298482
0.000301328
0.00032294
0.000339334
0.000373287
0.000398292
0.000435616
0.00046106
0.000491156
0.000508964
0.000523526
0.00052893
0.000524992
0.000518416
0.000499418
0.000486341
0.000460869
0.000449737
0.000428423
0.000427403
0.000419094
0.000432817
0.000441339
0.00046878
0.000491378
0.000525619
0.0005536
0.000583624
0.000605051
0.000619063
0.0006227
0.000612025
0.000591351
0.000553717
0.000509768
0.000449551
0.000388322
0.00031884
0.000252087
0.000186451
0.000174718
0.000213276
0.000367688
0.000617853
0.00099673
0.00146678
0.00201589
0.00261612
0.0032314
0.00386708
0.0044806
0.00511185
0.00572819
0.00639013
0.00710967
0.00793325
0.00890429
0.00996476
0.0111197
0.0120206
0.0126091
0.0141738
0.0135953
0.0123377
0.0111466
0.00986967
0.00877756
0.0077937
0.00689464
0.00611753
0.00533662
0.00465903
0.00394358
0.0033276
0.00268365
0.00212129
0.00159341
0.00111818
0.000763378
0.000439294
0.000274461
0.000120501
9.3173e-05
5.37308e-05
8.41309e-05
8.3108e-05
0.000123402
0.000133191
0.00016769
0.000173365
0.000193666
0.000190732
0.000193772
0.000186156
0.000175852