/*--------------------------------*- C++ -*----------------------------------*\
| =========                 |                                                 |
| \\      /  F ield         | OpenFOAM: The Open Source CFD Toolbox           |
|  \\    /   O peration     | Version:  v2106                                 |
|   \\  /    A nd           | Website:  www.openfoam.com                      |
|    \\/     M anipulation  |                                                 |
\*---------------------------------------------------------------------------*/
FoamFile
{
    version     2.0;
    format      ascii;
    arch        "LSB;label=32;scalar=64";
    class       volScalarField;
    location    "0";
    object      expGpCoeffs38;
}
// * * * * * * * * * * * * * * * * * * * * * * * * * * * * * * * * * * * * * //

dimensions      [0 0 0 0 0 0 0];

internalField   nonuniform List<scalar> 
8000
(
0.00223904
0.00246776
0.00286665
0.00341346
0.00400707
0.00461754
0.00513937
0.00557879
0.0058545
0.00597646
0.00593887
0.00574308
0.00542797
0.00499829
0.00452194
0.00400239
0.00351548
0.00306052
0.00268276
0.00238299
0.00216819
0.00204055
0.00197497
0.00197257
0.00198715
0.00201681
0.00203087
0.00202828
0.00200308
0.00195527
0.00188627
0.00179634
0.00168931
0.00156563
0.00143108
0.00128623
0.00113793
0.000986844
0.000839827
0.000697478
0.000565593
0.000444633
0.000338382
0.000247084
0.000171904
0.000112842
6.82906e-05
3.80094e-05
1.79732e-05
7.75969e-06
1.73718e-06
-6.12068e-07
-5.41201e-06
-1.31715e-05
-2.93195e-05
-5.42551e-05
-9.16942e-05
-0.000141848
-0.000206062
-0.000284325
-0.00037542
-0.000479108
-0.000591877
-0.000713317
-0.000838254
-0.000966172
-0.00109112
-0.00121254
-0.00132466
-0.00142697
-0.00151473
-0.00158756
-0.00164238
-0.00167899
-0.00170048
-0.00170755
-0.00172506
-0.00175473
-0.00183733
-0.00197177
-0.00218233
-0.00246702
-0.00282051
-0.00324207
-0.00368986
-0.00416448
-0.00459556
-0.00497976
-0.00525489
-0.00541662
-0.00543188
-0.00529977
-0.00502975
-0.00461294
-0.00412401
-0.00355682
-0.0030047
-0.00249401
-0.00211956
-0.00190367
0.00222062
0.00244929
0.00285933
0.00340603
0.00400851
0.0046192
0.00515043
0.00559041
0.00586798
0.00599041
0.00595064
0.00575512
0.0054353
0.00500568
0.00452248
0.00400281
0.00351041
0.00305529
0.00267577
0.0023759
0.00216148
0.0020338
0.00197161
0.00196921
0.00198792
0.00201758
0.0020327
0.00203011
0.00200489
0.00195709
0.00188785
0.00179793
0.00169045
0.00156678
0.00143163
0.0012868
0.00113786
0.000986792
0.000839175
0.000696844
0.000564503
0.000443558
0.000337066
0.00024578
0.00017061
0.000111556
6.72572e-05
3.69799e-05
1.73851e-05
7.17294e-06
1.69003e-06
-6.58915e-07
-4.92906e-06
-1.26876e-05
-2.8419e-05
-5.33513e-05
-9.05652e-05
-0.000140713
-0.000204932
-0.000283184
-0.000374511
-0.000478186
-0.000591369
-0.000712793
-0.000838256
-0.000966157
-0.00109166
-0.00121306
-0.00132567
-0.00142798
-0.0015161
-0.00158892
-0.00164393
-0.00168054
-0.00170132
-0.00170838
-0.00172241
-0.00175207
-0.00183154
-0.001966
-0.00217607
-0.00246084
-0.00281593
-0.00323764
-0.00369054
-0.00416526
-0.00460269
-0.00498683
-0.0052662
-0.00542767
-0.00544457
-0.00531203
-0.00503995
-0.00462264
-0.00412542
-0.00355804
-0.00299813
-0.00248754
-0.00210213
-0.00188629
0.00220073
0.00242935
0.00285143
0.003398
0.00401006
0.00462098
0.00516236
0.00560295
0.00588253
0.00600547
0.00596335
0.00576812
0.00544321
0.00501366
0.00452307
0.00400328
0.00350494
0.00304965
0.00266822
0.00236825
0.00215423
0.00202652
0.00196799
0.00196558
0.00198876
0.00201841
0.00203467
0.00203209
0.00200685
0.00195905
0.00188955
0.00179964
0.00169167
0.00156803
0.00143223
0.00128742
0.00113778
0.000986735
0.000838471
0.00069616
0.000563326
0.000442397
0.000335645
0.000244371
0.000169212
0.000110167
6.61413e-05
3.58682e-05
1.67501e-05
6.53933e-06
1.63912e-06
-7.09503e-07
-4.40755e-06
-1.2165e-05
-2.74465e-05
-5.23754e-05
-8.9346e-05
-0.000139487
-0.000203711
-0.000281953
-0.000373529
-0.00047719
-0.00059082
-0.000712228
-0.000838258
-0.000966141
-0.00109224
-0.00121363
-0.00132677
-0.00142906
-0.00151758
-0.00159039
-0.00164561
-0.00168222
-0.00170221
-0.00170928
-0.00171954
-0.00174921
-0.00182529
-0.00195978
-0.0021693
-0.00245416
-0.00281099
-0.00323285
-0.00369127
-0.0041661
-0.0046104
-0.00499446
-0.00527842
-0.00543961
-0.00545828
-0.00532526
-0.00505098
-0.00463311
-0.00412695
-0.00355936
-0.00299103
-0.00248055
-0.00208331
-0.00186752
0.00217925
0.00240781
0.00284289
0.00338934
0.00401174
0.0046229
0.00517525
0.0056165
0.00589825
0.00602174
0.00597708
0.00578215
0.00545175
0.00502228
0.0045237
0.00400378
0.00349903
0.00304355
0.00266007
0.00235999
0.00214641
0.00201866
0.00196407
0.00196166
0.00198966
0.00201931
0.00203681
0.00203422
0.00200897
0.00196118
0.00189138
0.00180149
0.001693
0.00156937
0.00143288
0.00128809
0.0011377
0.000986673
0.000837711
0.000695421
0.000562054
0.000441144
0.00033411
0.00024285
0.000167704
0.000108667
6.49363e-05
3.46677e-05
1.60644e-05
5.85514e-06
1.58414e-06
-7.64129e-07
-3.84441e-06
-1.16007e-05
-2.63964e-05
-5.13216e-05
-8.80295e-05
-0.000138163
-0.000202393
-0.000280624
-0.000372469
-0.000476114
-0.000590227
-0.000711617
-0.00083826
-0.000966125
-0.00109286
-0.00121424
-0.00132796
-0.00143023
-0.00151918
-0.00159198
-0.00164743
-0.00168403
-0.00170318
-0.00171024
-0.00171645
-0.00174611
-0.00181853
-0.00195306
-0.002162
-0.00244695
-0.00280565
-0.00322768
-0.00369206
-0.004167
-0.00461872
-0.0050027
-0.00529161
-0.00545251
-0.00547308
-0.00533955
-0.00506288
-0.00464442
-0.0041286
-0.00356078
-0.00298337
-0.002473
-0.00206298
-0.00184724
0.00215606
0.00238456
0.00283368
0.00337912
0.00401355
0.00462498
0.00518917
0.00563113
0.00591522
0.0060393
0.0059919
0.0057973
0.00546098
0.00503159
0.00452439
0.00400432
0.00349265
0.00303697
0.00265127
0.00235107
0.00213796
0.00201016
0.00195984
0.00195742
0.00199063
0.00202028
0.00203911
0.00203653
0.00201125
0.00196347
0.00189337
0.00180349
0.00169442
0.00157082
0.00143358
0.00128882
0.00113761
0.000986607
0.00083689
0.000694623
0.000560682
0.00043979
0.000332453
0.000241207
0.000166074
0.000107047
6.36351e-05
3.33714e-05
1.53239e-05
5.11632e-06
1.52478e-06
-8.23117e-07
-3.2363e-06
-1.09914e-05
-2.52625e-05
-5.01837e-05
-8.66079e-05
-0.000136733
-0.00020097
-0.000279188
-0.000371324
-0.000474953
-0.000589587
-0.000710957
-0.000838262
-0.000966106
-0.00109354
-0.0012149
-0.00132924
-0.0014315
-0.00152091
-0.0015937
-0.00164939
-0.00168598
-0.00170423
-0.00171129
-0.00171311
-0.00174277
-0.00181124
-0.0019458
-0.00215411
-0.00243917
-0.00279989
-0.00322209
-0.00369292
-0.00416798
-0.00462771
-0.0050116
-0.00530585
-0.00546643
-0.00548906
-0.00535498
-0.00507573
-0.00465663
-0.00413038
-0.00356232
-0.00297459
-0.00246485
-0.00204104
-0.00182535
0.00213488
0.00236285
0.00281914
0.00336278
0.00400866
0.00461874
0.00520133
0.00564428
0.00593336
0.00605879
0.00600839
0.00581658
0.00547322
0.00504805
0.00452629
0.00400656
0.00348576
0.00302986
0.00264176
0.00234144
0.00212884
0.00200099
0.00195528
0.00195285
0.00199804
0.00202778
0.0020479
0.00204519
0.00201989
0.00197171
0.0019013
0.00181079
0.00170118
0.00157676
0.00143881
0.00129314
0.00114115
0.000989234
0.000838789
0.000695684
0.000561186
0.000439601
0.00033197
0.000240204
0.000165084
0.000105724
6.26206e-05
3.21861e-05
1.46767e-05
4.41058e-06
1.4762e-06
-8.84664e-07
-2.65276e-06
-1.04484e-05
-2.42122e-05
-4.92662e-05
-8.54157e-05
-0.000135814
-0.000200056
-0.000278704
-0.000371119
-0.000475333
-0.000590467
-0.000712533
-0.000840479
-0.000969065
-0.00109717
-0.00121926
-0.00133421
-0.00143711
-0.00152697
-0.00160024
-0.00165616
-0.00169305
-0.00171042
-0.00171758
-0.0017095
-0.00173916
-0.00180336
-0.00193796
-0.00214559
-0.00243076
-0.00279367
-0.00321606
-0.00369529
-0.00417008
-0.00464311
-0.00502325
-0.00532383
-0.00548191
-0.00550682
-0.0053715
-0.00508773
-0.00466751
-0.0041261
-0.00355866
-0.00296201
-0.00245354
-0.00202151
-0.00180625
0.00212024
0.00234628
0.0028024
0.00334513
0.00399075
0.00460831
0.0051909
0.00565116
0.00594065
0.00608868
0.00603914
0.00586851
0.00552639
0.00511525
0.00459496
0.00407958
0.00355684
0.00309291
0.00270635
0.00239469
0.00218548
0.00205147
0.00201309
0.00201184
0.00206484
0.00209558
0.0021157
0.00211158
0.00208628
0.00203389
0.00196349
0.00186629
0.0017567
0.00162373
0.00148581
0.00133057
0.00117861
0.00101703
0.000866611
0.000714615
0.000580143
0.000451141
0.00034353
0.000246241
0.000171135
0.000108233
6.51378e-05
3.28904e-05
1.53843e-05
4.50146e-06
1.56763e-06
-9.31254e-07
-2.69902e-06
-1.09262e-05
-2.46874e-05
-5.11583e-05
-8.7301e-05
-0.000140594
-0.000204825
-0.000288059
-0.000380457
-0.000490849
-0.000605961
-0.000735399
-0.000863321
-0.000999851
-0.00112794
-0.00125778
-0.00137271
-0.00148241
-0.00157225
-0.0016507
-0.00170661
-0.00174656
-0.00176393
-0.00177214
-0.00175767
-0.00178785
-0.00184581
-0.00198676
-0.00219142
-0.00248731
-0.00284881
-0.00327898
-0.00375995
-0.00423145
-0.00470318
-0.00507136
-0.0053708
-0.00551052
-0.00553462
-0.00537967
-0.00509546
-0.00466027
-0.00411878
-0.00354489
-0.00294843
-0.00244076
-0.00200887
-0.00179529
0.00210443
0.00232838
0.00278434
0.00332608
0.00397142
0.00459704
0.00517963
0.00565858
0.00594852
0.00612095
0.00607235
0.00592458
0.0055838
0.00518783
0.00466912
0.00415844
0.00363726
0.00317001
0.00278471
0.00246752
0.0022591
0.00212239
0.00208431
0.00208399
0.00213698
0.0021688
0.00218891
0.00218327
0.00215798
0.00210103
0.00203065
0.00192622
0.00181665
0.00167446
0.00153656
0.00137099
0.00121906
0.00104704
0.000896653
0.000735058
0.000600613
0.000463602
0.000356014
0.000252761
0.00017767
0.000110942
6.78559e-05
3.3651e-05
1.61484e-05
4.59959e-06
1.66636e-06
-9.81565e-07
-2.74897e-06
-1.14421e-05
-2.52006e-05
-5.32015e-05
-8.93368e-05
-0.000145757
-0.000209974
-0.000298161
-0.000390541
-0.000507603
-0.000622692
-0.000760092
-0.000887988
-0.0010331
-0.00116115
-0.00129938
-0.00141428
-0.00153133
-0.00162115
-0.00170519
-0.00176109
-0.00180435
-0.00182171
-0.00183105
-0.00181659
-0.00184778
-0.00190548
-0.00205019
-0.00225415
-0.00255591
-0.00291631
-0.00335018
-0.00382976
-0.00429773
-0.00476804
-0.0051233
-0.00542153
-0.00554142
-0.00556464
-0.00538849
-0.00510382
-0.00465245
-0.00411088
-0.00353003
-0.00293376
-0.00242697
-0.00199522
-0.00178346
0.00208736
0.00230906
0.00276482
0.0033055
0.00395054
0.00458488
0.00516746
0.0056666
0.00595702
0.00615581
0.0061082
0.00598513
0.00564579
0.00526619
0.0047492
0.00424359
0.0037241
0.00325326
0.00286932
0.00254615
0.0023386
0.00219896
0.00216121
0.00216189
0.00221488
0.00224786
0.00226797
0.00226068
0.0022354
0.00217353
0.00210317
0.00199093
0.00188139
0.00172923
0.00159136
0.00141463
0.00126274
0.00107945
0.000929094
0.000757133
0.000622717
0.000477058
0.000369493
0.000259801
0.000184727
0.000113868
7.07911e-05
3.44723e-05
1.69735e-05
4.70556e-06
1.77297e-06
-1.03589e-06
-2.80291e-06
-1.19993e-05
-2.57547e-05
-5.54078e-05
-9.15352e-05
-0.000151331
-0.000215535
-0.00030907
-0.00040143
-0.000525695
-0.000640759
-0.000786755
-0.000914623
-0.00106899
-0.00119702
-0.0013443
-0.00145917
-0.00158415
-0.00167396
-0.00176403
-0.00181992
-0.00186675
-0.0018841
-0.00189467
-0.00188021
-0.00191249
-0.00196991
-0.00211867
-0.0023219
-0.00262999
-0.0029892
-0.00342705
-0.00390515
-0.0043693
-0.00483809
-0.00517939
-0.00547631
-0.00557478
-0.00559705
-0.00539802
-0.00511284
-0.004644
-0.00410235
-0.00351398
-0.00291792
-0.00241207
-0.00198047
-0.00177068
0.00206893
0.00228819
0.00274376
0.00328327
0.00392799
0.00457174
0.00515433
0.00567526
0.0059662
0.00619345
0.00614693
0.00605051
0.00571274
0.00535082
0.00483567
0.00433554
0.00381788
0.00334316
0.00296069
0.00263107
0.00242445
0.00228166
0.00224426
0.00224602
0.002299
0.00233323
0.00235334
0.00234428
0.002319
0.00225182
0.00218148
0.00206081
0.00195129
0.00178837
0.00165053
0.00146176
0.0013099
0.00111444
0.000964126
0.00078097
0.000646587
0.000491589
0.00038405
0.000267403
0.000192347
0.000117027
7.39606e-05
3.53591e-05
1.78645e-05
4.81999e-06
1.8881e-06
-1.09456e-06
-2.86116e-06
-1.26009e-05
-2.63531e-05
-5.77902e-05
-9.39091e-05
-0.000157351
-0.000221539
-0.00032085
-0.000413188
-0.000545231
-0.000660268
-0.000815548
-0.000943386
-0.00110776
-0.00123576
-0.0013928
-0.00150765
-0.0016412
-0.00173098
-0.00182757
-0.00188344
-0.00193413
-0.00195148
-0.00196337
-0.00194891
-0.00198237
-0.00203949
-0.00219263
-0.00239505
-0.00270998
-0.00306791
-0.00351007
-0.00398656
-0.00444658
-0.00491372
-0.00523996
-0.00553546
-0.00561081
-0.00563206
-0.00540832
-0.00512258
-0.00463488
-0.00409314
-0.00349664
-0.00290081
-0.00239598
-0.00196455
-0.00175688
0.00204902
0.00226565
0.00272101
0.00325928
0.00390364
0.00455756
0.00514014
0.00568462
0.00597611
0.00623409
0.00618874
0.00612111
0.00578503
0.0054422
0.00492905
0.00443483
0.00391914
0.00344023
0.00305935
0.00272277
0.00251715
0.00237095
0.00233393
0.00233687
0.00238984
0.00242542
0.00244553
0.00243455
0.00240928
0.00233637
0.00226604
0.00213627
0.00202678
0.00185224
0.00171444
0.00151266
0.00136083
0.00115223
0.00100195
0.000806711
0.000672362
0.00050728
0.000399768
0.000275612
0.000200575
0.000120439
7.73832e-05
3.63168e-05
1.88266e-05
4.94356e-06
2.01242e-06
-1.15791e-06
-2.92406e-06
-1.32506e-05
-2.69992e-05
-6.03629e-05
-9.64725e-05
-0.000163851
-0.000228023
-0.00033357
-0.000425884
-0.000566327
-0.000681334
-0.00084664
-0.000974445
-0.00114962
-0.00127758
-0.00144518
-0.00156
-0.00170279
-0.00179255
-0.00189618
-0.00195204
-0.00200689
-0.00202424
-0.00203755
-0.00202309
-0.00205783
-0.00211463
-0.00227249
-0.00247404
-0.00279636
-0.00315291
-0.00359972
-0.00407447
-0.00453004
-0.00499539
-0.00530537
-0.00559933
-0.00564972
-0.00566986
-0.00541943
-0.00513309
-0.00462503
-0.00408319
-0.00347793
-0.00288234
-0.0023786
-0.00194736
-0.00174198
0.00202752
0.00224132
0.00269644
0.00323337
0.00387735
0.00454225
0.00512482
0.00569472
0.00598682
0.00627798
0.00623389
0.00619735
0.00586309
0.00554087
0.00502988
0.00454205
0.00402849
0.00354506
0.00316589
0.00282179
0.00261725
0.00246737
0.00243076
0.00243496
0.00248792
0.00252497
0.00254507
0.00253203
0.00250676
0.00242766
0.00235735
0.00221775
0.00210829
0.0019212
0.00178344
0.00156761
0.00141583
0.00119304
0.0010428
0.000834507
0.000700195
0.000524224
0.000416741
0.000284477
0.000209461
0.000124123
8.1079e-05
3.73509e-05
1.98656e-05
5.07699e-06
2.14666e-06
-1.22631e-06
-2.99198e-06
-1.39521e-05
-2.7697e-05
-6.31409e-05
-9.92406e-05
-0.00017087
-0.000235025
-0.000347306
-0.000439595
-0.000589107
-0.000704083
-0.000880213
-0.00100798
-0.00119482
-0.00132275
-0.00150173
-0.00161652
-0.00176931
-0.00185904
-0.00197026
-0.00202611
-0.00208546
-0.0021028
-0.00211766
-0.0021032
-0.00213932
-0.00219576
-0.00235872
-0.00255934
-0.00288963
-0.00324469
-0.00369652
-0.0041694
-0.00462015
-0.00508359
-0.005376
-0.0056683
-0.00569173
-0.00571067
-0.00543143
-0.00514445
-0.0046144
-0.00407245
-0.00345772
-0.00286239
-0.00235984
-0.0019288
-0.00172589
0.00201256
0.00222463
0.00265988
0.00319811
0.00383507
0.00450964
0.00510144
0.00569009
0.00600366
0.00631946
0.00630179
0.00628727
0.00598008
0.00567081
0.00517419
0.00469245
0.0041754
0.00369509
0.00330362
0.00296114
0.00274614
0.00259771
0.00256165
0.00256661
0.00263157
0.00266963
0.00268861
0.00267413
0.0026457
0.00256231
0.00248604
0.00233964
0.00222193
0.00202616
0.00187864
0.0016531
0.00149098
0.00125837
0.00109814
0.000880817
0.000737666
0.000554159
0.000439563
0.000301691
0.00022154
0.000132604
8.63217e-05
4.07528e-05
2.15256e-05
6.11103e-06
2.30401e-06
-1.20912e-06
-3.73829e-06
-1.51365e-05
-3.02734e-05
-6.71564e-05
-0.000105882
-0.000180452
-0.000248831
-0.000365772
-0.000463955
-0.000619737
-0.000742032
-0.000925648
-0.00106164
-0.00125655
-0.0013929
-0.00157976
-0.00170237
-0.00186207
-0.00195827
-0.00207475
-0.00213509
-0.00219755
-0.00221783
-0.00223375
-0.00221125
-0.00224874
-0.00230595
-0.00246939
-0.00267987
-0.00300996
-0.00337635
-0.00382624
-0.00430262
-0.00474861
-0.00519963
-0.00548109
-0.00574973
-0.00575405
-0.00575015
-0.00544949
-0.00514423
-0.00459811
-0.00404838
-0.00342577
-0.00283686
-0.00233372
-0.00192001
-0.00171865
0.00200546
0.00221746
0.00261983
0.00315749
0.00378333
0.00445688
0.00506762
0.00565579
0.00603317
0.0063502
0.00641294
0.00640151
0.00616635
0.00586165
0.00541361
0.00493717
0.00443593
0.00396044
0.00355918
0.00322012
0.00299101
0.00284438
0.00279692
0.00280218
0.0028598
0.00289785
0.00291345
0.00289898
0.00286096
0.0027776
0.00268327
0.00253692
0.00239427
0.00219856
0.00202154
0.00179607
0.00160267
0.00137013
0.00117965
0.000962401
0.000792493
0.000609045
0.000472915
0.000335087
0.000239398
0.00015049
9.44083e-05
4.88541e-05
2.4361e-05
8.95146e-06
2.49794e-06
-1.01407e-06
-5.84818e-06
-1.72428e-05
-3.65887e-05
-7.34598e-05
-0.00012013
-0.000194676
-0.000275845
-0.000392748
-0.00050877
-0.000664502
-0.000808944
-0.000992501
-0.00115338
-0.00134823
-0.00151006
-0.00169686
-0.00184314
-0.00200279
-0.00211856
-0.002235
-0.00230896
-0.0023714
-0.00240052
-0.00241644
-0.00240621
-0.00244344
-0.00251614
-0.00267803
-0.00290512
-0.00323223
-0.00360991
-0.00405556
-0.00451949
-0.0049608
-0.00536985
-0.00564724
-0.00585336
-0.00585488
-0.00578184
-0.00547992
-0.00512043
-0.0045745
-0.00400877
-0.00338685
-0.0028079
-0.00230517
-0.00192327
-0.00172197
0.00199196
0.00220389
0.002558
0.00309517
0.00372549
0.00439799
0.0050311
0.00561875
0.00606503
0.0063834
0.00653297
0.00652488
0.0063675
0.00606773
0.00567215
0.00520143
0.00471726
0.00424699
0.00383514
0.00349978
0.00325543
0.00311076
0.00305098
0.00305656
0.00310625
0.00314428
0.00315625
0.00314178
0.00309341
0.00301008
0.00289626
0.00274996
0.00258037
0.00238473
0.00217585
0.00195046
0.00172327
0.00149082
0.00126768
0.0010505
0.000851698
0.000668314
0.000508929
0.000371149
0.000258681
0.000169804
0.000103141
5.76023e-05
2.74229e-05
1.20187e-05
2.70735e-06
-8.03436e-07
-8.12654e-06
-1.95172e-05
-4.34082e-05
-8.02665e-05
-0.000135516
-0.000210035
-0.000305016
-0.000421878
-0.000557164
-0.000712841
-0.000881198
-0.00106469
-0.00125245
-0.00144722
-0.00163657
-0.00182331
-0.00199516
-0.00215475
-0.00229166
-0.00240805
-0.00249671
-0.00255913
-0.00259781
-0.00261372
-0.00261673
-0.00265368
-0.00274312
-0.00290334
-0.00314835
-0.00347225
-0.00386211
-0.00430319
-0.00475368
-0.00518993
-0.00555366
-0.00582665
-0.00596527
-0.00596375
-0.00581605
-0.00551279
-0.00509473
-0.00454901
-0.00396432
-0.00334311
-0.00276033
-0.00225794
-0.00192125
-0.00172001
0.00188358
0.00209531
0.00245739
0.00299316
0.00365177
0.00432268
0.00503824
0.00562679
0.00616723
0.00648923
0.00673379
0.00673132
0.00664126
0.00634827
0.00597112
0.00550706
0.00500397
0.00453895
0.00409808
0.00376615
0.00350254
0.00335963
0.00330541
0.0033113
0.00338058
0.0034186
0.0034344
0.00341994
0.00335998
0.00327668
0.00313953
0.00299329
0.0027907
0.00259514
0.00234687
0.00212157
0.00185258
0.00162022
0.00135699
0.00113989
0.000906305
0.00072299
0.000536703
0.000398975
0.000268651
0.000179808
0.000103932
5.84105e-05
2.58064e-05
1.0408e-05
2.50238e-06
-1.00708e-06
-6.60845e-06
-1.79948e-05
-4.32883e-05
-8.01328e-05
-0.000142673
-0.000217165
-0.000326947
-0.000443766
-0.000601588
-0.000757207
-0.000954653
-0.00113808
-0.00135909
-0.00155379
-0.00177738
-0.00196405
-0.00216763
-0.00232716
-0.00249004
-0.0026064
-0.00271268
-0.00277508
-0.00281898
-0.00283489
-0.0028287
-0.00286537
-0.0029555
-0.0031142
-0.00337997
-0.00370088
-0.00411955
-0.004556
-0.00502637
-0.00545668
-0.0058071
-0.00607396
-0.00615468
-0.00614799
-0.00591674
-0.00561002
-0.00510926
-0.00456247
-0.00390607
-0.003286
-0.00267832
-0.00217705
-0.00182989
-0.00162882
0.00176735
0.00197888
0.00235499
0.00288909
0.00357176
0.00424214
0.00504629
0.00563591
0.00628379
0.00660981
0.00695605
0.00695976
0.0069404
0.00665483
0.00629595
0.0058391
0.00531081
0.00485147
0.00437474
0.00404651
0.0037604
0.0036194
0.00357642
0.00358266
0.00367726
0.00371527
0.00373561
0.00372116
0.00364868
0.00356541
0.00340294
0.00325676
0.00301833
0.00282285
0.00253178
0.00230657
0.00199217
0.0017599
0.00145312
0.00123611
0.000964771
0.00078153
0.000566097
0.000428425
0.000278833
0.000190026
0.000104322
5.8819e-05
2.37964e-05
8.40417e-06
2.25789e-06
-1.25015e-06
-4.75537e-06
-1.61371e-05
-4.27567e-05
-7.95862e-05
-0.000149893
-0.000224355
-0.000350115
-0.000466886
-0.000649138
-0.000804694
-0.00103373
-0.00121708
-0.00147423
-0.00166886
-0.00192966
-0.00211625
-0.00235433
-0.0025138
-0.00270489
-0.0028212
-0.0029466
-0.00300897
-0.00305825
-0.00307415
-0.00305472
-0.0030911
-0.00317726
-0.00333432
-0.00362373
-0.00394142
-0.00439519
-0.00482665
-0.00532278
-0.00574667
-0.00608417
-0.00634433
-0.00636437
-0.006352
-0.00603119
-0.00572066
-0.00512533
-0.0045773
-0.00384382
-0.00322397
-0.00259487
-0.00209501
-0.00173203
-0.00153112
0.00169353
0.00189349
0.00226899
0.00278931
0.00347005
0.00415938
0.00496836
0.00561777
0.00628101
0.00669766
0.0070576
0.00716136
0.00715437
0.00695316
0.00660399
0.00619671
0.00567136
0.00522523
0.00474801
0.00441384
0.00412792
0.00398334
0.00394722
0.00395962
0.00406452
0.00410542
0.00412611
0.00410106
0.00402764
0.00391911
0.00375474
0.00357066
0.00332955
0.00308706
0.00279279
0.00251595
0.00219815
0.00191447
0.00160443
0.0013407
0.00106654
0.000844756
0.000627145
0.000461084
0.000310055
0.000203256
0.000116823
6.22579e-05
2.70619e-05
8.6661e-06
2.65915e-06
-1.54423e-06
-4.88511e-06
-1.86332e-05
-4.53451e-05
-8.9752e-05
-0.000160634
-0.000250416
-0.000377367
-0.000518327
-0.000702405
-0.000890582
-0.00112197
-0.00134444
-0.0016043
-0.0018414
-0.00210499
-0.00233356
-0.00257422
-0.0027711
-0.00296431
-0.00310984
-0.00323668
-0.00331732
-0.00336699
-0.00339002
-0.00336316
-0.00340223
-0.00348369
-0.00365024
-0.0039403
-0.00426848
-0.00472327
-0.00514764
-0.00564162
-0.00602541
-0.00635454
-0.00654244
-0.00655155
-0.00645171
-0.00611855
-0.00572822
-0.00511916
-0.00451808
-0.00378009
-0.00314294
-0.00251535
-0.00202731
-0.00166483
-0.00147413
0.00161382
0.00180129
0.00217613
0.00268157
0.00336021
0.00407
0.00487726
0.00559802
0.00626167
0.00678814
0.00715119
0.00737509
0.00737376
0.0072729
0.00693124
0.00658276
0.00606531
0.00563591
0.00516533
0.0048263
0.00454474
0.00439791
0.00436349
0.00438342
0.00448829
0.00453257
0.00455325
0.00451588
0.00444249
0.00430456
0.00414027
0.00391209
0.0036711
0.0033739
0.00307977
0.00274285
0.0024252
0.00208169
0.00177179
0.0014537
0.00117967
0.000913031
0.000695523
0.000496421
0.000345464
0.000217726
0.000131334
6.62226e-05
3.10433e-05
9.15234e-06
3.14824e-06
-1.86444e-06
-5.20374e-06
-2.17057e-05
-4.8405e-05
-0.000101631
-0.00017248
-0.000280091
-0.000406982
-0.000576094
-0.000760085
-0.000986224
-0.00121751
-0.00148549
-0.00174523
-0.00203177
-0.00229524
-0.00257264
-0.00281319
-0.00305363
-0.00324674
-0.00342627
-0.00355305
-0.00365496
-0.00370461
-0.00373593
-0.00370906
-0.00375189
-0.0038319
-0.0040089
-0.0042952
-0.00463452
-0.00508349
-0.00549881
-0.00598576
-0.00632206
-0.00664439
-0.00674636
-0.0067502
-0.00654537
-0.00620914
-0.00572215
-0.00511236
-0.00444811
-0.00371128
-0.00305545
-0.00242947
-0.0019542
-0.00159226
-0.00141258
0.00152775
0.00170172
0.00207585
0.00256522
0.0032416
0.00397349
0.0047789
0.0055767
0.00624078
0.00688585
0.00725226
0.00760589
0.00761067
0.00761816
0.00728462
0.00699963
0.00649072
0.00607937
0.00561596
0.00527168
0.00499484
0.00484557
0.00481299
0.00484107
0.0049459
0.00499382
0.00501449
0.00496382
0.00489047
0.00472078
0.00455657
0.00428078
0.00403991
0.00368364
0.00338966
0.00298786
0.00267038
0.00226226
0.00195252
0.00157573
0.00130183
0.000986756
0.00076936
0.000534581
0.000383701
0.000233352
0.000147003
7.05039e-05
3.53426e-05
9.6774e-06
3.67637e-06
-2.21021e-06
-5.5478e-06
-2.50236e-05
-5.17093e-05
-0.000114459
-0.000185271
-0.000312136
-0.000438962
-0.000638474
-0.00082237
-0.0010895
-0.00132067
-0.00163781
-0.00189741
-0.00223733
-0.00250067
-0.00283082
-0.00307125
-0.00335871
-0.00355172
-0.00376797
-0.00389469
-0.00401956
-0.00406918
-0.00410946
-0.00408259
-0.00412947
-0.0042079
-0.0043962
-0.00467843
-0.00502978
-0.00547247
-0.00587802
-0.00635738
-0.0066424
-0.00695739
-0.00696656
-0.00696472
-0.00664652
-0.00630696
-0.0057156
-0.00510501
-0.00437255
-0.00363697
-0.00296096
-0.00233675
-0.00187525
-0.00151391
-0.00134612
0.00147145
0.00164083
0.0019897
0.00247295
0.00311931
0.00385556
0.00465082
0.00547821
0.00618498
0.00687933
0.00732571
0.00773467
0.00784065
0.00789624
0.00766639
0.00741306
0.00698084
0.00658419
0.00615676
0.00581747
0.00555118
0.00540562
0.00537003
0.00540208
0.00550037
0.00554968
0.00555975
0.0055039
0.00541038
0.00522837
0.00503145
0.00473718
0.00445392
0.00407473
0.0037325
0.00330553
0.00293826
0.00250508
0.00214819
0.00174863
0.00143369
0.00109982
0.00084978
0.000601163
0.000426854
0.000267734
0.000166498
8.55816e-05
4.20756e-05
1.49473e-05
4.21807e-06
-2.00745e-06
-9.81392e-06
-3.04432e-05
-6.45854e-05
-0.000131029
-0.000214923
-0.000349255
-0.000496415
-0.00070772
-0.000919595
-0.00120263
-0.00146848
-0.00180469
-0.00210356
-0.00246419
-0.00276833
-0.00311895
-0.00339817
-0.00370387
-0.0039301
-0.0041606
-0.00431183
-0.00444562
-0.00451257
-0.00455633
-0.00454357
-0.00459209
-0.00468119
-0.00487079
-0.00515075
-0.00550127
-0.00591791
-0.00631321
-0.00672908
-0.00698803
-0.00721382
-0.0071815
-0.00709146
-0.00672466
-0.00631515
-0.00568015
-0.00503157
-0.00427265
-0.00354413
-0.0028638
-0.00226497
-0.0018086
-0.00147305
-0.00130932
0.00138626
0.00155546
0.00184518
0.00232688
0.00295718
0.00369008
0.00450395
0.00532814
0.0061224
0.00681615
0.00741311
0.00782515
0.00810737
0.00816986
0.00810062
0.00785715
0.00753747
0.00715122
0.00677812
0.00644708
0.00619967
0.00605882
0.00602061
0.00605346
0.00614394
0.00619323
0.00619003
0.00613421
0.00600592
0.00582401
0.00556967
0.00527558
0.0049173
0.00453834
0.00411047
0.00368375
0.00322809
0.00279516
0.00235482
0.00195549
0.00156845
0.00123478
0.000928258
0.00067979
0.000466165
0.00030714
0.000182497
0.000101629
4.68917e-05
1.97796e-05
4.49236e-06
-1.72944e-06
-1.37341e-05
-3.43511e-05
-7.84255e-05
-0.000144829
-0.000249311
-0.000383563
-0.000564979
-0.000776158
-0.00103662
-0.00131948
-0.00164646
-0.00198247
-0.00235102
-0.00271143
-0.00308816
-0.00343857
-0.00378675
-0.00409227
-0.00437732
-0.00460768
-0.004802
-0.0049357
-0.00502913
-0.00507286
-0.00508176
-0.00512957
-0.00523566
-0.00542124
-0.00569775
-0.0060411
-0.00642059
-0.0068067
-0.00713158
-0.00738163
-0.00747085
-0.00743208
-0.0071884
-0.00681841
-0.00627635
-0.00564132
-0.00491449
-0.00415786
-0.00341009
-0.00273233
-0.00214566
-0.00169054
-0.00140937
-0.00124581
0.00120551
0.00137331
0.00164413
0.00211897
0.00272778
0.0034572
0.00435049
0.00517108
0.00611967
0.00681472
0.00760652
0.00802453
0.00850277
0.00857468
0.00864635
0.00841522
0.0081508
0.00777597
0.00740213
0.00707945
0.0068229
0.00668663
0.0066867
0.00672038
0.00686381
0.00691307
0.00691013
0.00685429
0.00668651
0.00650461
0.00618195
0.00588788
0.00543868
0.00505976
0.00452727
0.00410062
0.00353693
0.00310409
0.00256253
0.00216327
0.00169044
0.00135684
0.000985703
0.000737289
0.000482402
0.000323416
0.000179159
9.83121e-05
4.04735e-05
1.33683e-05
3.87635e-06
-2.34394e-06
-8.4115e-06
-2.90254e-05
-7.54378e-05
-0.000141829
-0.000263652
-0.000397879
-0.000615657
-0.000826794
-0.00114339
-0.0014262
-0.00182649
-0.00216244
-0.002616
-0.00297636
-0.00344217
-0.00379253
-0.00422522
-0.0045307
-0.00488722
-0.00511756
-0.00536321
-0.00549692
-0.00561002
-0.00565376
-0.00563624
-0.00568332
-0.00577076
-0.0059524
-0.00624863
-0.0065847
-0.00697647
-0.00735243
-0.0076401
-0.00787893
-0.00785204
-0.00780442
-0.00738955
-0.0070136
-0.00629655
-0.0056597
-0.00479288
-0.00403885
-0.00321734
-0.00254224
-0.00197122
-0.00152213
-0.0012535
-0.0010912
0.00108574
0.00123014
0.00149999
0.0019281
0.00253304
0.00323955
0.00412775
0.0049905
0.00593874
0.00675257
0.00754731
0.00814516
0.00863015
0.00890728
0.00899154
0.00894257
0.0086919
0.00844201
0.0080784
0.00782297
0.00757371
0.00747226
0.00747983
0.00753379
0.00768189
0.00772791
0.00772497
0.00763425
0.00746659
0.00721929
0.00689686
0.00651238
0.00606349
0.0055774
0.00504528
0.00450456
0.00394127
0.0033976
0.00285641
0.00235858
0.00188608
0.00147274
0.00110187
0.000795922
0.000541212
0.000346631
0.000202475
0.000104306
4.65076e-05
1.40073e-05
4.522e-06
-3.08564e-06
-9.14897e-06
-3.53434e-05
-8.17236e-05
-0.000165105
-0.000286843
-0.000454644
-0.00067227
-0.000935975
-0.00125235
-0.00160604
-0.00200606
-0.00242755
-0.00288079
-0.00333513
-0.00380062
-0.00424547
-0.00467786
-0.00506974
-0.00542601
-0.00572648
-0.00597196
-0.00615291
-0.00626594
-0.00633089
-0.00630956
-0.00635637
-0.00643818
-0.00660565
-0.00689624
-0.0071882
-0.00757141
-0.00784953
-0.00812514
-0.00821054
-0.00817212
-0.00794458
-0.00752311
-0.0069853
-0.00626491
-0.00551828
-0.00465107
-0.00385449
-0.00303703
-0.00237829
-0.00181049
-0.00140192
-0.00113412
-0.00099297
0.000956398
0.00107553
0.00134519
0.001722
0.00232276
0.00300452
0.00388723
0.0047955
0.00573982
0.00668505
0.00747947
0.00827543
0.0087647
0.00926643
0.00935959
0.00951083
0.00927197
0.00916077
0.00880879
0.00863038
0.0083896
0.0083294
0.00834046
0.00841726
0.00856529
0.00860781
0.00860488
0.00847648
0.00830895
0.00799103
0.00766884
0.00718674
0.00673819
0.00613637
0.00560465
0.00494075
0.00437788
0.00371454
0.00317377
0.00256949
0.00209734
0.00159791
0.00122731
0.000859236
0.000604719
0.0003717
0.000227653
0.000110778
5.30234e-05
1.46974e-05
5.2192e-06
-3.88656e-06
-9.94532e-06
-4.2166e-05
-8.85111e-05
-0.000190239
-0.000311885
-0.00051594
-0.000733402
-0.00105387
-0.00137001
-0.00180025
-0.00219997
-0.00271382
-0.00316672
-0.00372254
-0.00418768
-0.00473458
-0.00516664
-0.00565182
-0.00600782
-0.00638401
-0.00662931
-0.00686128
-0.00697422
-0.00706208
-0.00704074
-0.0070874
-0.00716619
-0.00731632
-0.00759949
-0.00784072
-0.00821357
-0.0083831
-0.00864788
-0.00856467
-0.00851775
-0.00809335
-0.00766734
-0.00695125
-0.00623037
-0.00536237
-0.00449793
-0.00365541
-0.00284233
-0.00220126
-0.00163693
-0.00127281
-0.0010052
-0.000886902
0.000874117
0.00098925
0.00122761