/*--------------------------------*- C++ -*----------------------------------*\
| =========                 |                                                 |
| \\      /  F ield         | OpenFOAM: The Open Source CFD Toolbox           |
|  \\    /   O peration     | Version:  v2106                                 |
|   \\  /    A nd           | Website:  www.openfoam.com                      |
|    \\/     M anipulation  |                                                 |
\*---------------------------------------------------------------------------*/
FoamFile
{
    version     2.0;
    format      ascii;
    arch        "LSB;label=32;scalar=64";
    class       volScalarField;
    location    "0";
    object      expGpCoeffs52;
}
// * * * * * * * * * * * * * * * * * * * * * * * * * * * * * * * * * * * * * //

dimensions      [0 0 0 0 0 0 0];

internalField   nonuniform List<scalar> 
8000
(
8.6498e-09
-1.81631e-09
-2.64045e-07
-9.30914e-07
-2.58816e-06
-5.22541e-06
-7.18451e-06
-8.0155e-06
-6.95934e-06
-4.31534e-06
4.95135e-07
7.7254e-06
4.06612e-05
0.000102496
0.000236761
0.00044613
0.000733465
0.00109825
0.0014807
0.00187882
0.00223336
0.00254092
0.00278799
0.00297102
0.00310407
0.00318543
0.00322455
0.00322152
0.00317713
0.00309144
0.00296765
0.00280631
0.00261572
0.00239684
0.00216172
0.00191156
0.00165992
0.00140801
0.00116835
0.000941947
0.000738018
0.000557215
0.000403989
0.000278529
0.000180068
0.000108351
5.79185e-05
2.81478e-05
1.02181e-05
3.28558e-06
-2.98977e-06
-9.49653e-06
-2.60415e-05
-5.33789e-05
-9.88497e-05
-0.000162919
-0.000248985
-0.000357116
-0.00048603
-0.000635384
-0.000799414
-0.000977408
-0.00116023
-0.00134697
-0.00152694
-0.00169918
-0.00185358
-0.00198933
-0.00209881
-0.00218151
-0.0022336
-0.00225494
-0.00224592
-0.00220675
-0.00213901
-0.00204277
-0.0019119
-0.00174748
-0.00154411
-0.00130463
-0.00104964
-0.000781629
-0.000543625
-0.000336636
-0.000185336
-8.92521e-05
-3.19384e-05
-1.12028e-05
-5.20314e-07
1.44367e-06
2.77324e-06
3.35454e-06
3.04226e-06
1.89935e-06
8.28143e-07
-1.09102e-07
-9.66463e-07
-1.91254e-06
-2.82582e-06
-3.4887e-06
9.49258e-09
-9.71269e-10
-2.12222e-07
-8.78378e-07
-2.48069e-06
-5.11556e-06
-7.43161e-06
-8.27129e-06
-6.98866e-06
-4.34452e-06
1.50934e-07
7.37396e-06
3.66048e-05
9.83527e-05
0.000228871
0.000438105
0.000728611
0.00109336
0.00148256
0.0018807
0.0022386
0.00254617
0.00279275
0.00297576
0.00310753
0.00318887
0.0032279
0.00322487
0.00318044
0.00309476
0.00297043
0.00280911
0.00261756
0.00239871
0.00216238
0.00191225
0.00165937
0.0014075
0.00116681
0.000940434
0.000735855
0.000555076
0.000401668
0.000276224
0.000178042
0.000106334
5.65545e-05
2.67876e-05
9.73735e-06
2.80576e-06
-2.54426e-06
-9.05019e-06
-2.48087e-05
-5.21427e-05
-9.71251e-05
-0.000161186
-0.000247166
-0.000355284
-0.00048454
-0.000633875
-0.000798615
-0.000976586
-0.00116035
-0.00134707
-0.00152802
-0.00170023
-0.00185547
-0.0019912
-0.00210122
-0.0021839
-0.00223615
-0.00225749
-0.00224825
-0.00220908
-0.00214128
-0.00204505
-0.00191511
-0.00175071
-0.0015469
-0.00130741
-0.00104902
-0.000781016
-0.000539099
-0.000332168
-0.000180691
-8.46903e-05
-3.03802e-05
-9.67804e-06
-5.33758e-07
1.43123e-06
2.90104e-06
3.47869e-06
3.05508e-06
1.91127e-06
7.97174e-07
-1.39452e-07
-9.36058e-07
-1.88251e-06
-2.87934e-06
-3.54207e-06
1.04027e-08
-5.87635e-11
-1.56261e-07
-8.21648e-07
-2.36463e-06
-4.99693e-06
-7.69844e-06
-8.54749e-06
-7.02032e-06
-4.37602e-06
-2.20749e-07
6.99446e-06
3.22245e-05
9.38787e-05
0.00022035
0.00042944
0.00072337
0.00108807
0.00148457
0.00188274
0.00224426
0.00255184
0.00279789
0.00298088
0.00311126
0.0031926
0.00323152
0.00322849
0.00318401
0.00309834
0.00297343
0.00281213
0.00261954
0.00240072
0.00216308
0.00191299
0.00165879
0.00140694
0.00116514
0.0009388
0.00073352
0.000552765
0.000399161
0.000273734
0.000175854
0.000104155
5.50816e-05
2.53188e-05
9.21826e-06
2.28764e-06
-2.06319e-06
-8.56822e-06
-2.34776e-05
-5.08077e-05
-9.52628e-05
-0.000159315
-0.000245201
-0.000353305
-0.00048293
-0.000632245
-0.000797752
-0.000975698
-0.00116048
-0.00134717
-0.00152918
-0.00170137
-0.00185751
-0.00199322
-0.00210382
-0.00218649
-0.00223891
-0.00226024
-0.00225076
-0.0022116
-0.00214372
-0.00204751
-0.00191859
-0.00175421
-0.0015499
-0.00131042
-0.00104835
-0.000780353
-0.000534213
-0.000327344
-0.000175675
-7.97643e-05
-2.86977e-05
-8.0315e-06
-5.48276e-07
1.4178e-06
3.03905e-06
3.61275e-06
3.06894e-06
1.92415e-06
7.63732e-07
-1.72226e-07
-9.03226e-07
-1.85009e-06
-2.93713e-06
-3.59971e-06
1.13854e-08
9.26597e-10
-9.58328e-08
-7.60388e-07
-2.23931e-06
-4.86882e-06
-7.98657e-06
-8.84575e-06
-7.05451e-06
-4.41004e-06
-6.22107e-07
6.58466e-06
2.74944e-05
8.90475e-05
0.00021115
0.000420083
0.000717711
0.00108236
0.00148674
0.00188494
0.00225036
0.00255795
0.00280343
0.00298641
0.0031153
0.00319662
0.00323544
0.00323241
0.00318787
0.00310221
0.00297667
0.00281539
0.00262169
0.0024029
0.00216385
0.00191379
0.00165815
0.00140635
0.00116334
0.000937036
0.000730999
0.000550271
0.000396453
0.000271046
0.000173491
0.000101803
5.34911e-05
2.37328e-05
8.65773e-06
1.72814e-06
-1.5437e-06
-8.04777e-06
-2.20401e-05
-4.93662e-05
-9.32518e-05
-0.000157295
-0.000243081
-0.000351167
-0.000481193
-0.000630486
-0.00079682
-0.00097474
-0.00116061
-0.00134727
-0.00153043
-0.0017026
-0.00185971
-0.0019954
-0.00210662
-0.00218928
-0.00224188
-0.00226321
-0.00225348
-0.00221432
-0.00214637
-0.00205017
-0.00192234
-0.00175798
-0.00155315
-0.00131367
-0.00104763
-0.000779638
-0.000528936
-0.000322134
-0.000170258
-7.44449e-05
-2.68808e-05
-6.25351e-06
-5.63953e-07
1.40329e-06
3.18807e-06
3.75751e-06
3.08389e-06
1.93805e-06
7.2762e-07
-2.07616e-07
-8.67773e-07
-1.81508e-06
-2.99954e-06
-3.66196e-06
1.24466e-08
1.99063e-09
-3.05798e-08
-6.97894e-07
-2.10398e-06
-4.73049e-06
-8.29771e-06
-9.16782e-06
-7.09143e-06
-4.44677e-06
-1.05551e-06
6.14214e-06
2.23867e-05
8.38306e-05
0.000201214
0.000409979
0.0007116
0.00107619
0.00148908
0.00188731
0.00225696
0.00256456
0.00280942
0.00299238
0.00311965
0.00320096
0.00323966
0.00323663
0.00319204
0.00310639
0.00298017
0.00281892
0.002624
0.00240525
0.00216467
0.00191466
0.00165746
0.0014057
0.0011614
0.000935131
0.000728276
0.000547577
0.00039353
0.000268142
0.00017094
9.92635e-05
5.17736e-05
2.20201e-05
8.05245e-06
1.12397e-06
-9.8274e-07
-7.48576e-06
-2.04879e-05
-4.78096e-05
-9.10803e-05
-0.000155113
-0.00024079
-0.00034886
-0.000479317
-0.000628585
-0.000795814
-0.000973705
-0.00116076
-0.00134739
-0.00153178
-0.00170392
-0.00186209
-0.00199775
-0.00210965
-0.0021923
-0.0022451
-0.00226642
-0.00225641
-0.00221726
-0.00214922
-0.00205304
-0.00192639
-0.00176205
-0.00155665
-0.00131718
-0.00104684
-0.000778865
-0.000523238
-0.000316509
-0.000164409
-6.87009e-05
-2.49189e-05
-4.33355e-06
-5.80882e-07
1.38763e-06
3.349e-06
3.91384e-06
3.10004e-06
1.95307e-06
6.88624e-07
-2.45831e-07
-8.5614e-07
-1.77728e-06
-3.06693e-06
-3.72917e-06
3.13619e-08
1.53803e-08
1.17445e-08
-6.52969e-07
-1.99493e-06
-4.61781e-06
-8.58324e-06
-9.45076e-06
-7.1326e-06
-4.50467e-06
-1.51916e-06
5.66366e-06
1.71617e-05
7.84532e-05
0.000190618
0.000399022
0.000705001
0.00106953
0.00149161
0.00188988
0.00226408
0.00257169
0.00281589
0.00299882
0.00311947
0.00320044
0.00323903
0.00323588
0.00319123
0.00310574
0.00297886
0.00281803
0.00262194
0.00240383
0.00216178
0.00191255
0.00165385
0.00140291
0.00115737
0.000931858
0.000724218
0.000544146
0.00038988
0.000264941
0.00016808
9.66691e-05
4.99753e-05
2.03362e-05
7.43964e-06
5.38687e-07
-4.4119e-07
-6.92473e-06
-1.89691e-05
-4.62022e-05
-8.88777e-05
-0.000152694
-0.000238265
-0.000345961
-0.000476833
-0.000625583
-0.000793673
-0.000970938
-0.00115914
-0.00134512
-0.0015307
-0.00170225
-0.00186142
-0.00199662
-0.00210917
-0.00219154
-0.00224453
-0.0022658
-0.00225552
-0.00221654
-0.00214841
-0.00205257
-0.00193077
-0.00176645
-0.00156044
-0.00132097
-0.001046
-0.00077803
-0.000517085
-0.000310434
-0.000158106
-6.25913e-05
-2.29162e-05
-2.36928e-06
-5.78769e-07
1.3779e-06
3.52221e-06
4.07982e-06
3.11175e-06
1.96152e-06
6.40994e-07
-3.29161e-07
-1.00814e-06
-2.02802e-06
-3.22214e-06
-3.89413e-06
8.96615e-08
5.45754e-08
5.115e-08
-6.04458e-07
-1.94563e-06
-4.51207e-06
-8.47636e-06
-9.57681e-06
-7.26134e-06
-4.87913e-06
-1.90315e-06
5.14027e-06
1.66295e-05
7.46204e-05
0.000186735
0.000385203
0.000691254
0.00104468
0.00146715
0.0018607
0.00223393
0.00254024
0.00277994
0.00295916
0.00307407
0.00315174
0.00319032
0.00318595
0.00314131
0.00305726
0.00293041
0.00277363
0.00257758
0.0023657
0.0021237
0.0018821
0.00162345
0.00138057
0.00113507
0.000917082
0.000709481
0.000535612
0.000381375
0.000260874
0.000164031
9.52389e-05
4.85538e-05
2.00488e-05
7.15475e-06
5.2852e-07
-4.51173e-07
-6.74238e-06
-1.87845e-05
-4.51465e-05
-8.7814e-05
-0.000149497
-0.000235051
-0.000339073
-0.000469919
-0.00061354
-0.000781598
-0.000952725
-0.00114089
-0.00132043
-0.00150598
-0.00167162
-0.00183077
-0.00196139
-0.00207391
-0.00215361
-0.00220658
-0.00222735
-0.00221708
-0.0021797
-0.00211159
-0.00201906
-0.00190146
-0.00174118
-0.00153808
-0.00130166
-0.00102694
-0.000764355
-0.000503142
-0.000304119
-0.000151894
-6.12953e-05
-2.16361e-05
-2.14492e-06
-3.59503e-07
1.55953e-06
3.69971e-06
4.07707e-06
3.10849e-06
1.90672e-06
5.87169e-07
-4.96717e-07
-1.17227e-06
-2.36408e-06
-3.55622e-06
-4.26925e-06
1.52616e-07
9.69e-08
9.37017e-08
-5.52073e-07
-1.89239e-06
-4.39789e-06
-8.36095e-06
-9.71292e-06
-7.40036e-06
-5.28349e-06
-2.3178e-06
4.57509e-06
1.60548e-05
7.04815e-05
0.000182542
0.000370281
0.000676101
0.00101559
0.00143761
0.00182149
0.00219427
0.00249563
0.0027351
0.00291017
0.00302506
0.00309915
0.00313772
0.00313204
0.00308741
0.00300491
0.00287809
0.00272569
0.00252968
0.00232453
0.00208258
0.00184921
0.00159062
0.00135644
0.00111099
0.000901126
0.000693567
0.000526397
0.000372192
0.000256481
0.000159658
9.36945e-05
4.70189e-05
1.97386e-05
6.84712e-06
5.17541e-07
-4.61953e-07
-6.54546e-06
-1.85852e-05
-4.40065e-05
-8.66653e-05
-0.000146044
-0.000231582
-0.000331634
-0.000462454
-0.000600536
-0.00076856
-0.000933057
-0.00112118
-0.00129377
-0.00147928
-0.00163856
-0.00179767
-0.00192334
-0.00203584
-0.00211265
-0.00216561
-0.00218584
-0.00217556
-0.00213993
-0.00207183
-0.00198288
-0.00186531
-0.0017097
-0.00150677
-0.00127642
-0.001002
-0.000748119
-0.000487149
-0.000297312
-0.000145186
-5.98959e-05
-2.02539e-05
-1.90266e-06
-1.2273e-07
1.75566e-06
3.89138e-06
4.0741e-06
3.10497e-06
1.84754e-06
5.29045e-07
-6.77651e-07
-1.34952e-06
-2.72697e-06
-3.91698e-06
-4.67432e-06
2.20596e-07
1.42604e-07
1.39651e-07
-4.95506e-07
-1.83489e-06
-4.2746e-06
-8.23632e-06
-9.8599e-06
-7.55047e-06
-5.72013e-06
-2.76555e-06
3.96478e-06
1.54341e-05
6.60122e-05
0.000178014
0.000354168
0.000659738
0.00098417
0.00140572
0.00177916
0.00215145
0.00244746
0.00268668
0.00285727
0.00297213
0.00304236
0.00308092
0.00307382
0.0030292
0.00294838
0.00282159
0.00267392
0.00247796
0.00228007
0.00203817
0.0018137
0.00155517
0.00133038
0.00108499
0.000883896
0.000676383
0.000516447
0.000362275
0.000251738
0.000154936
9.20268e-05
4.53614e-05
1.94036e-05
6.51492e-06
5.05686e-07
-4.73593e-07
-6.33283e-06
-1.83699e-05
-4.27755e-05
-8.5425e-05
-0.000142316
-0.000227835
-0.000323601
-0.000454393
-0.000586493
-0.00075448
-0.000911819
-0.0010999
-0.00126499
-0.00145046
-0.00160285
-0.00176193
-0.00188226
-0.00199474
-0.00206842
-0.00212137
-0.00214101
-0.00213074
-0.00209698
-0.0020289
-0.00194381
-0.00182626
-0.0016757
-0.00147295
-0.00124918
-0.000975064
-0.000730588
-0.000469878
-0.000289961
-0.000137942
-5.83847e-05
-1.87613e-05
-1.64104e-06
1.32948e-07
1.96744e-06
4.09836e-06
4.0709e-06
3.10117e-06
1.78364e-06
4.66282e-07
-8.73031e-07
-1.54091e-06
-3.11883e-06
-4.30654e-06
-5.11174e-06
2.94005e-07
1.91956e-07
1.89268e-07
-4.34423e-07
-1.77281e-06
-4.14145e-06
-8.10175e-06
-1.00186e-05
-7.71257e-06
-6.19164e-06
-3.24906e-06
3.30575e-06
1.4764e-05
6.11861e-05
0.000173124
0.000336768
0.000642068
0.000950247
0.00137127
0.00173344
0.00210521
0.00239544
0.00263439
0.00280014
0.00291497
0.00298104
0.00301959
0.00301095
0.00296634
0.00288734
0.00276057
0.00261802
0.0024221
0.00223206
0.00199022
0.00177536
0.00151689
0.00130225
0.00105692
0.000865291
0.000657827
0.000505702
0.000351567
0.000246616
0.000149837
9.02259e-05
4.35715e-05
1.90418e-05
6.1562e-06
4.92884e-07
-4.86164e-07
-6.10322e-06
-1.81374e-05
-4.14462e-05
-8.40856e-05
-0.000138291
-0.000223789
-0.000314927
-0.000445688
-0.000571329
-0.000739276
-0.000888885
-0.00107693
-0.00123391
-0.00141933
-0.00156429
-0.00172333
-0.0018379
-0.00195035
-0.00202065
-0.00207359
-0.0020926
-0.00208233
-0.00205061
-0.00198254
-0.00190162
-0.0017841
-0.00163898
-0.00143643
-0.00121975
-0.000945979
-0.000711656
-0.000451228
-0.000282023
-0.00013012
-5.67529e-05
-1.71495e-05
-1.35854e-06
4.09038e-07
2.19614e-06
4.32186e-06
4.06744e-06
3.09707e-06
1.71464e-06
3.98507e-07
-1.08401e-06
-1.74758e-06
-3.54198e-06
-4.72721e-06
-5.58407e-06
3.73274e-07
2.4525e-07
2.42847e-07
-3.68463e-07
-1.70577e-06
-3.99768e-06
-7.95643e-06
-1.019e-05
-7.88761e-06
-6.70079e-06
-3.77117e-06
2.5941e-06
1.40403e-05
5.59747e-05
0.000167844
0.000317979
0.000622988
0.000913615
0.00133408
0.00168408
0.00205528
0.00233927
0.00257793
0.00273845
0.00285325
0.00291482
0.00295336
0.00294307
0.00289847
0.00282143
0.00269469
0.00255766
0.00236179
0.00218022
0.00193844
0.00173396
0.00147555
0.00127187
0.0010266
0.0008452
0.000637789
0.000494099
0.000340003
0.000241085
0.000144331
8.82812e-05
4.16388e-05
1.86512e-05
5.76885e-06
4.7906e-07
-4.99737e-07
-5.85528e-06
-1.78864e-05
-4.00108e-05
-8.26393e-05
-0.000133944
-0.00021942
-0.00030556
-0.000436288
-0.000554955
-0.000722859
-0.00086412
-0.00105211
-0.00120034
-0.00138572
-0.00152266
-0.00168166
-0.00178999
-0.00190241
-0.00196908
-0.002022
-0.00204032
-0.00203006
-0.00200053
-0.00193248
-0.00185607
-0.00173858
-0.00159933
-0.00139699
-0.00118798
-0.000914571
-0.000691213
-0.000431089
-0.000273451
-0.000121673
-5.49907e-05
-1.54091e-05
-1.05349e-06
7.07173e-07
2.4431e-06
4.5632e-06
4.06371e-06
3.09264e-06
1.64012e-06
3.25321e-07
-1.31184e-06
-1.97075e-06
-3.99891e-06
-5.18146e-06
-6.09412e-06
4.58872e-07
3.02798e-07
3.00704e-07
-2.97236e-07
-1.63338e-06
-3.84243e-06
-7.7995e-06
-1.03751e-05
-8.07663e-06
-7.25059e-06
-4.33496e-06
1.82562e-06
1.32588e-05
5.03471e-05
0.000162142
0.00029769
0.000602384
0.000874059
0.00129392
0.00163077
0.00200136
0.00227862
0.00251696
0.00267184
0.0027866
0.00284331
0.00288185
0.00286976
0.00282517
0.00275025
0.00262355
0.00249247
0.00229666
0.00212424
0.00188253
0.00168924
0.00143091
0.00123906
0.000993859
0.000823505
0.000616151
0.00048157
0.000327516
0.000235113
0.000138385
8.61813e-05
3.95517e-05
1.82293e-05
5.35056e-06
4.64133e-07
-5.14395e-07
-5.58754e-06
-1.76154e-05
-3.84607e-05
-8.10775e-05
-0.000129249
-0.000214702
-0.000295446
-0.000426137
-0.000537273
-0.000705131
-0.000837378
-0.00102532
-0.0011641
-0.00134942
-0.0014777
-0.00163665
-0.00173826
-0.00185065
-0.00191338
-0.00196629
-0.00198387
-0.00197361
-0.00194645
-0.00187842
-0.00180687
-0.00168942
-0.00155652
-0.00135441
-0.00115367
-0.000880656
-0.000669138
-0.000409343
-0.000264195
-0.000112552
-5.30879e-05
-1.35296e-05
-7.24077e-07
1.02911e-06
2.70977e-06
4.82382e-06
4.05968e-06
3.08786e-06
1.55966e-06
2.46292e-07
-1.55785e-06
-2.21174e-06
-4.49233e-06
-5.67198e-06
-6.64488e-06
5.8096e-07
4.09056e-07
3.20885e-07
-2.64653e-07
-1.61444e-06
-3.76138e-06
-7.45748e-06
-1.02993e-05
-8.45721e-06
-7.89412e-06
-4.95008e-06
1.05736e-06
1.36565e-05
4.71595e-05
0.00015486
0.000279533
0.000572814
0.000828079
0.0012391
0.00156136
0.00192963
0.00219819
0.00243192
0.00258231
0.00268421
0.00273754
0.00277358
0.00276026
0.00271584
0.00264239
0.00251928
0.00239235
0.00220321
0.00203716
0.00180436
0.00161886
0.0013705
0.00118688
0.000951412
0.000788733
0.000589741
0.000461491
0.000313652
0.000225774
0.000132834
8.33027e-05
3.82669e-05
1.81013e-05
5.29201e-06
6.85918e-07
-7.977e-07
-5.67435e-06
-1.77513e-05
-3.77077e-05
-7.9019e-05
-0.000125014
-0.000207228
-0.000284221
-0.00040961
-0.00051551
-0.000676354
-0.000802341
-0.000982331
-0.00111454
-0.00129202
-0.00141427
-0.00156656
-0.0016635
-0.0017713
-0.00183129
-0.00188226
-0.00189933
-0.00188988
-0.00186436
-0.00179919
-0.00173103
-0.00162403
-0.00149627
-0.00129919
-0.00110749
-0.000838438
-0.000638785
-0.000385872
-0.000251152
-0.00010537
-5.12662e-05
-1.25778e-05
-9.32548e-07
1.48358e-06
3.12943e-06
5.01424e-06
4.05326e-06
3.04075e-06
1.45833e-06
6.45987e-08
-1.82839e-06
-2.92951e-06
-5.33054e-06
-6.43104e-06
-7.43954e-06
7.45395e-07
5.73728e-07
3.40279e-07
-2.44961e-07
-1.61988e-06
-3.76849e-06
-6.87191e-06
-9.69732e-06
-9.24665e-06
-8.70753e-06
-5.6268e-06
3.66799e-07
1.63624e-05
4.99597e-05
0.000144341
0.000268845
0.000515024
0.000769269
0.001126
0.00144674
0.00178353
0.00205097
0.00227157
0.0024217
0.00251468
0.002568
0.00259652
0.0025832
0.00253928
0.00246586
0.00235351
0.00222662
0.0020575
0.0018915
0.00168547
0.00150003
0.00128161
0.00109805
0.000891828
0.000729201
0.000555325
0.000427116
0.000297942
0.000210093
0.000128526
7.901e-05
3.87569e-05
1.85978e-05
5.99084e-06
1.38623e-06
-1.62173e-06
-6.49681e-06
-1.87288e-05
-3.86788e-05
-7.60752e-05
-0.000122056
-0.000194546
-0.000271514
-0.000380976
-0.000486841
-0.00062662
-0.000752566
-0.000908679
-0.00104085
-0.00119475
-0.00131696
-0.00144922
-0.00154612
-0.00164016
-0.00170013
-0.00174526
-0.00176232
-0.00175532
-0.00172981
-0.00167324
-0.0016051
-0.00150874
-0.00138117
-0.0012022
-0.00101125
-0.000774128
-0.000575325
-0.000360564
-0.000226273
-0.000103953
-4.9849e-05
-1.3875e-05
-2.18884e-06
2.21559e-06
3.84292e-06
5.0035e-06
4.04191e-06
2.91069e-06
1.3308e-06
-2.3685e-07
-2.12265e-06
-3.86453e-06
-6.25301e-06
-7.51034e-06
-8.51733e-06
9.27686e-07
7.56267e-07
4.00668e-07
-1.84522e-07
-1.53409e-06
-3.68647e-06
-6.23959e-06
-9.04723e-06
-1.00991e-05
-9.58588e-06
-6.35755e-06
-3.789e-07
1.92843e-05
5.29835e-05
0.000132983
0.000257303
0.000452619
0.000705762
0.00100387
0.00132297
0.00162576
0.00189199
0.00209841
0.00224828
0.00233161
0.00238491
0.00240532
0.00239201
0.00234862
0.00227523
0.00217451
0.00204766
0.00190016
0.00173422
0.00155709
0.00137171
0.00118563
0.00100213
0.000827486
0.000664916
0.000518161
0.000389997
0.000280978
0.00019316
0.000123873
7.43745e-05
3.92859e-05
1.91339e-05
6.74547e-06
2.14245e-06
-2.51154e-06
-7.38493e-06
-1.97843e-05
-3.97273e-05
-7.28964e-05
-0.000118861
-0.000180851
-0.000257792
-0.000350055
-0.000455884
-0.000572915
-0.000698818
-0.000829146
-0.000961268
-0.00108971
-0.00121188
-0.0013225
-0.00141938
-0.00149855
-0.0015585
-0.00159732
-0.00161438
-0.00161002
-0.00158452
-0.00153724
-0.00146912
-0.00138424
-0.00125687
-0.00109748
-0.000907325
-0.000704684
-0.000506799
-0.000333234
-0.000199409
-0.000102422
-4.83186e-05
-1.52757e-05
-3.54543e-06
3.00604e-06
4.61338e-06
4.99191e-06
4.02965e-06
2.77024e-06
1.19309e-06
-5.06469e-07
-2.38328e-06
-4.93361e-06
-7.30894e-06
-8.70351e-06
-9.70891e-06
1.20059e-06
1.02954e-06
5.37689e-07
-4.56153e-08
-9.16006e-07
-3.0523e-06
-5.85268e-06
-8.65045e-06
-1.21522e-05
-1.17036e-05
-8.39513e-06
-2.46828e-06
1.1336e-05
4.4857e-05
9.23014e-05
0.000215725
0.000358968
0.000610356
0.000870288
0.0011876
0.00147661
0.00174172
0.00193565
0.00208526
0.00214994
0.00220322
0.00221245
0.00219914
0.00215581
0.00208243
0.00199183
0.00186503
0.00173689
0.00157101
0.00142028
0.00123497
0.00107907
0.000895647
0.000751317
0.000588807
0.000469113
0.000340998
0.000253344
0.000165559
0.00011088
6.14e-05
3.46028e-05
1.44583e-05
5.81213e-06
1.21085e-06
-1.60255e-06
-6.4741e-06
-1.60079e-05
-3.59434e-05
-6.26564e-05
-0.000108603
-0.000158898
-0.000235811
-0.000310769
-0.000416559
-0.000511686
-0.000637541
-0.000743556
-0.000875628
-0.000980279
-0.0011024
-0.00119283
-0.00128966
-0.00135482
-0.00141475
-0.00144739
-0.00146444
-0.00146215
-0.00143666
-0.00140024
-0.00133214
-0.0012646
-0.00113743
-0.000994177
-0.000804804
-0.000622143
-0.000425365
-0.000284255
-0.000151343
-8.58805e-05
-3.21344e-05
-1.27937e-05
-1.11673e-06
4.49049e-06
6.05872e-06
5.49062e-06
4.51161e-06
2.34833e-06
7.82387e-07
-4.57982e-07
-2.33765e-06
-6.19972e-06
-8.55808e-06
-1.04387e-05
-1.14418e-05
1.5012e-06
1.33133e-06
7.84646e-07
1.93079e-07
-2.55229e-07
-2.4055e-06
-5.43702e-06
-8.22479e-06
-1.44729e-05
-1.40957e-05
-1.06904e-05
-4.82113e-06
2.05954e-06
3.53734e-05
4.55152e-05
0.000167944
0.000253605
0.000503085
0.000725695
0.00104107
0.00132051
0.00158441
0.00176443
0.00191375
0.00195462
0.00200787
0.00200491
0.00199161
0.00194829
0.00187495
0.00179514
0.00166839
0.00156094
0.00139513
0.00127264
0.00108741
0.000963856
0.000780505
0.000668706
0.000506263
0.000415671
0.000287607
0.000223004
0.000135254
9.64211e-05
4.69613e-05
2.92634e-05
9.12711e-06
4.71033e-06
1.10916e-07
-5.20489e-07
-5.39007e-06
-1.16658e-05
-3.15932e-05
-5.12331e-05
-9.71615e-05
-0.000134807
-0.000211689
-0.000268031
-0.000373777
-0.000445394
-0.000571198
-0.000651149
-0.000783167
-0.000862325
-0.000984396
-0.00105318
-0.00114998
-0.00120012
-0.00126002
-0.00128602
-0.00130306
-0.00130296
-0.00127749
-0.00125283
-0.00118476
-0.00113817
-0.00101121
-0.000884897
-0.000696367
-0.000531465
-0.000335885
-0.000228278
-9.63608e-05
-6.65432e-05
-1.31971e-05
-9.86719e-06
1.74709e-06
6.14093e-06
7.66611e-06
6.07512e-06
5.07736e-06
1.89025e-06
3.36987e-07
-5.13012e-07
-2.33214e-06
-7.63228e-06
-1.00683e-05
-1.23171e-05
-1.33156e-05
2.20132e-06
1.98344e-06
1.4405e-06
6.34473e-07
1.95722e-07
-1.91022e-06
-4.9338e-06
-8.06218e-06
-1.45966e-05
-1.55772e-05
-1.22059e-05
-7.77771e-06
-1.63025e-06
2.49721e-05
3.06897e-05
0.000128596
0.000205275
0.000412047
0.000627521
0.000900693
0.00117744
0.00141269
0.0015896
0.00172064
0.00175884
0.0018013
0.0017974
0.0017829
0.0017396
0.00167515
0.00159621
0.00148777
0.00138197
0.00124184
0.00112159
0.000966246
0.00084526
0.000692389
0.000583165
0.00044838
0.000360086
0.000254284
0.000191497
0.000119301
8.17147e-05
4.12056e-05
2.42217e-05
7.82851e-06
3.74224e-06
1.19657e-08
-4.49477e-07
-4.55477e-06
-1.05747e-05
-2.72012e-05
-4.62836e-05
-8.43922e-05
-0.00012104
-0.000184667
-0.00023954
-0.000326948
-0.000396707
-0.000500657
-0.000578549
-0.000687668
-0.000764814
-0.000865821
-0.000932893
-0.00101319
-0.00106214
-0.00111212
-0.00113759
-0.0011523
-0.00115238
-0.00113201
-0.00110828
-0.00105207
-0.00100664
-0.000896956
-0.000773661
-0.000609786
-0.000448639
-0.000283231
-0.000181604
-7.41937e-05
-4.97141e-05
-7.34503e-06
-5.87221e-06
3.32825e-06
7.56904e-06
8.17766e-06
6.46539e-06
4.93648e-06
1.66201e-06
-3.03197e-07
-1.14591e-06
-4.04919e-06
-9.31459e-06
-1.23333e-05
-1.45689e-05
-1.54954e-05
2.95735e-06
2.68761e-06
2.14871e-06
1.11111e-06
6.82678e-07
-1.3754e-06
-4.38605e-06
-7.88834e-06
-1.44274e-05
-1.70631e-05
-1.37306e-05
-1.1007e-05
-4.93846e-06
1.37285e-05
1.91762e-05
8.75892e-05
0.000163454
0.000318576
0.000532589
0.000753475
0.00102865
0.00122679
0.00140287
0.00151053
0.0015487
0.00157861
0.0015747
0.00155881
0.00151554
0.00146143
0.00138252
0.00129539
0.00118965
0.00107937
0.000959184
0.000838612
0.000717684
0.000600273
0.0004911
0.000388493
0.00030024
0.000220337
0.00015758
0.000103478
6.59101e-05
3.58139e-05
1.88381e-05
6.79976e-06
2.71542e-06
-3.59027e-09
-4.64814e-07
-3.68085e-06
-9.69793e-06
-2.24842e-05
-4.15575e-05
-7.05686e-05
-0.000107199
-0.000155406
-0.000210253
-0.000276326
-0.000346052
-0.000424576
-0.000502431
-0.000584907
-0.000662017
-0.00073852
-0.000805561
-0.00086665
-0.00091558
-0.000954026
-0.000979485
-0.00099148
-0.000991555
-0.000977136
-0.000953412
-0.000911006
-0.000865601
-0.000778054
-0.000655292
-0.000523126
-0.000362892
-0.000234777
-0.000133895
-5.61544e-05
-3.20318e-05
-2.86387e-06
-1.497e-06
4.87456e-06
9.07998e-06
8.5879e-06
6.86189e-06
4.68881e-06
1.41714e-06
-1.00725e-06
-1.82934e-06
-5.90332e-06
-1.11312e-05
-1.47792e-05
-1.70004e-05
-1.78494e-05
3.77373e-06
3.44801e-06
2.91346e-06
1.6258e-06
1.20851e-06
-7.97882e-07
-3.79456e-06
-7.70062e-06
-1.42446e-05
-1.86677e-05
-1.5377e-05
-1.44941e-05
-8.5108e-06
1.58712e-06
6.74341e-06
4.33081e-05
0.000118293
0.000217641
0.000430077
0.000594503
0.000867978
0.00102605
0.00120122
0.00128364
0.00132178
0.00133813
0.00133423
0.00131684
0.00127358
0.00123064
0.00115178
0.00108766
0.000981963
0.000903941
0.000783812
0.000700788
0.000579922
0.000500802
0.000391686
0.000323824
0.000235617
0.00018368
0.000120956
8.63925e-05
4.88437e-05
2.99918e-05
1.30247e-05
5.68886e-06
1.60661e-06
-2.03882e-08
-4.81376e-07
-2.73715e-06
-8.75115e-06
-1.73905e-05
-3.64541e-05
-5.56414e-05
-9.22529e-05
-0.000123808
-0.000178627
-0.000221663
-0.000291354
-0.00034242
-0.000420236
-0.000473942
-0.000551013
-0.000601056
-0.000668062
-0.000708415
-0.00075732
-0.000783305
-0.000808751
-0.000817816
-0.000817892
-0.000809893
-0.000786182
-0.000758678
-0.000713304
-0.000649659
-0.000527472
-0.000429546
-0.000270298
-0.000182453
-8.23768e-05
-3.66747e-05
-1.29377e-05
1.97507e-06
3.22753e-06
6.54434e-06
1.07115e-05
9.03089e-06
7.29005e-06
4.42136e-06
1.15272e-06
-1.76751e-06
-2.56733e-06
-7.9055e-06
-1.30929e-05
-1.74203e-05
-1.96261e-05
-2.03912e-05
4.9518e-06
4.60782e-06
4.06123e-06
2.7096e-06
1.5315e-06
-4.21656e-07
-3.4212e-06
-7.46344e-06
-1.31539e-05
-1.8313e-05
-1.7546e-05
-1.74478e-05
-1.2673e-05
-6.09374e-06
3.16385e-06
2.65153e-05
8.96608e-05
0.000165405
0.000333812
0.000472752
0.000692667
0.000831018
0.000976668
0.00104727
0.00108051
0.00109156
0.00108785
0.00106988
0.00103328
0.000994711
0.000930055
0.000874936
0.000789401
0.00072399
0.00062749
0.000559146
0.000462514
0.000398364
0.000311388
0.000257108
0.000186899
0.000145891
9.59263e-05
6.89996e-05
3.89301e-05
2.4472e-05
1.06064e-05
5.108e-06
1.35169e-06
1.51431e-07
-7.87576e-07
-2.66779e-06
-7.98672e-06
-1.50049e-05
-3.05713e-05
-4.5919e-05
-7.52473e-05
-0.000100294
-0.000143897
-0.00017793
-0.000233197
-0.000273531
-0.000335189
-0.000377651
-0.000438754
-0.000478457
-0.000531695
-0.000563941
-0.000602985
-0.000624101
-0.000644697
-0.000652616
-0.000653196
-0.000647705
-0.000628487
-0.000606808
-0.000567704
-0.000515215
-0.000415547
-0.000333981
-0.000208199
-0.000138227
-5.90031e-05
-2.68049e-05
-4.97716e-06
4.00791e-06
7.05812e-06
9.11873e-06
1.141e-05
9.23275e-06
7.09795e-06
3.94412e-06
7.41509e-07
-2.34669e-06
-4.95345e-06
-1.07243e-05
-1.60671e-05
-2.05001e-05
-2.26025e-05
-2.33394e-05
6.43789e-06
6.09575e-06
5.5615e-06
4.22821e-06
1.81572e-06
-1.31717e-07
-2.69606e-06
-6.72408e-06
-1.15819e-05
-1.67026e-05
-2.08762e-05
-2.0871e-05
-1.77913e-05
-1.13341e-05
3.31941e-06
2.66934e-05
6.8835e-05
0.000144195
0.000238927
0.000376574
0.000505091
0.000642034
0.00073477
0.000805021
0.000825668
0.000836712
0.000831979
0.00081402
0.000788393
0.000749848
0.000708687
0.000653601
0.000601442
0.00053607
0.000478768
0.000410465
0.000354144
0.000290032
0.000240022
0.000185775
0.000145775
0.000104791
7.64369e-05
4.95263e-05
3.23585e-05
1.7909e-05
9.69731e-06
4.20223e-06
1.48108e-06
2.81544e-07
-9.91932e-07
-2.87102e-06
-6.63124e-06
-1.36452e-05
-2.30721e-05
-3.84105e-05
-5.53978e-05
-8.04296e-05
-0.000105249
-0.000139261
-0.000170503
-0.000210812
-0.000245621
-0.000288058
-0.00032266
-0.00036234
-0.000392733
-0.00042496
-0.000447627
-0.00046873
-0.000481242
-0.000489157
-0.00049052
-0.000485032
-0.000474012
-0.000452346
-0.000428758
-0.000376475
-0.00031754
-0.000236712
-0.000167931
-9.85075e-05
-5.42575e-05
-2.21447e-05
-4.05098e-06
4.92056e-06
1.07872e-05
1.27575e-05
1.18391e-05
9.64651e-06
6.24813e-06
3.11457e-06
4.29117e-07
-2.65434e-06
-7.80264e-06
-1.34964e-05
-2.05309e-05
-2.49131e-05
-2.60576e-05
-2.67902e-05
8.22918e-06
7.9106e-06
7.48872e-06
6.17409e-06
2.22315e-06
3.02466e-07
-6.74531e-07
-4.67661e-06
-1.04906e-05
-1.5588e-05
-2.69398e-05
-2.71001e-05
-2.47317e-05
-1.84417e-05
-5.5481e-06
1.76487e-05
2.22577e-05
9.67807e-05
0.000119841
0.000255894
0.000319167
0.000454696
0.000500108
0.000570016
0.000561326
0.000572353
0.000562275
0.000544338
0.000529734
0.000491238
0.000473805
0.000418791
0.00040049
0.000335205
0.000317907
0.000249695
0.000234852
0.000170827
0.000159281
0.000105109
9.70552e-05
5.613e-05
5.12318e-05
2.43587e-05
2.19242e-05
7.4953e-06
6.66767e-06
1.1805e-06
1.08558e-06
-1.12197e-07
-2.70378e-07
-2.14696e-06
-3.02819e-06
-1.00327e-05
-1.21215e-05
-2.74387e-05
-3.10105e-05
-5.60079e-05
-6.11016e-05
-9.50658e-05
-0.000101471
-0.000141727
-0.000149002
-0.00019138
-0.000198909
-0.00023853
-0.000245596
-0.000277781
-0.000283678
-0.000304751
-0.00030889
-0.000316794
-0.000318783
-0.000313305
-0.00031301
-0.000291373
-0.000292233
-0.000240157
-0.000216603
-0.00013654
-0.000111678
-4.29982e-05
-3.71642e-05
-5.35002e-06
2.12957e-08
8.91123e-06
1.61174e-05
1.79699e-05
1.35416e-05
1.13003e-05
4.6459e-06
1.55403e-06
6.06507e-07
-2.43948e-06
-1.02001e-05
-1.58642e-05
-2.62312e-05
-3.0479e-05
-3.01657e-05
-3.08408e-05
1.01131e-05
1.01751e-05
9.76604e-06
8.37716e-06
4.47189e-06
1.59629e-06
6.58354e-07
-3.25515e-06
-9.04173e-06
-1.49074e-05
-2.63607e-05
-3.06607e-05
-2.84176e-05
-2.60688e-05
-1.33747e-05
2.88063e-06
6.00369e-06
5.43973e-05
7.33618e-05
0.000161223
0.000219798
0.00030932
0.000352875
0.000398873
0.000394369
0.000399877
0.000389806
0.000376978
0.000362384
0.000337142
0.000319721
0.000284741
0.000266453
0.000225692
0.000208405
0.000166395
0.000151563
0.000112592
0.000101054
6.84453e-05
6.03974e-05
3.60397e-05
3.1145e-05
1.53486e-05
1.29158e-05
4.56788e-06
3.74083e-06
6.48131e-07
5.53274e-07
-9.76407e-08
-2.55712e-07
-1.40983e-06
-2.29045e-06
-6.55197e-06
-8.63933e-06
-1.78582e-05
-2.14275e-05
-3.63939e-05
-4.1484e-05
-6.17803e-05
-6.81812e-05
-9.22504e-05
-9.95201e-05
-0.000124921
-0.000132444
-0.000156302
-0.000163363
-0.000182902
-0.000188794
-0.000201795
-0.000205931
-0.000211116
-0.000213104
-0.000210278
-0.000209983
-0.000197124
-0.000195419
-0.000161843
-0.00013978
-8.80935e-05
-6.62836e-05
-2.22831e-05
-1.85912e-05
2.59364e-06
7.43624e-06
1.31484e-05
2.02623e-05
1.89815e-05
1.44791e-05
1.05375e-05
3.8527e-06
2.78845e-07
-6.23562e-07
-5.95415e-06
-1.36223e-05
-2.1012e-05
-3.12736e-05
-3.44564e-05
-3.41208e-05
-3.37933e-05
1.21474e-05