/*--------------------------------*- C++ -*----------------------------------*\
| =========                 |                                                 |
| \\      /  F ield         | OpenFOAM: The Open Source CFD Toolbox           |
|  \\    /   O peration     | Version:  v2106                                 |
|   \\  /    A nd           | Website:  www.openfoam.com                      |
|    \\/     M anipulation  |                                                 |
\*---------------------------------------------------------------------------*/
FoamFile
{
    version     2.0;
    format      ascii;
    arch        "LSB;label=32;scalar=64";
    class       volScalarField;
    location    "0";
    object      expGpCoeffs32;
}
// * * * * * * * * * * * * * * * * * * * * * * * * * * * * * * * * * * * * * //

dimensions      [0 0 0 0 0 0 0];

internalField   nonuniform List<scalar> 
8000
(
0.0224083
0.0236287
0.0254438
0.027537
0.02913
0.0302432
0.0307268
0.0306789
0.0301776
0.0292535
0.0280406
0.0265484
0.0248857
0.0230634
0.0212202
0.0193562
0.0176477
0.0160887
0.0148154
0.0138313
0.0131983
0.012925
0.0129566
0.0132966
0.0137699
0.0143716
0.0149684
0.0155553
0.0160993
0.0165995
0.0170471
0.0174416
0.0177769
0.0180526
0.0182659
0.0184167
0.0185054
0.0185321
0.0184999
0.0184093
0.0182655
0.018069
0.0178263
0.0175381
0.0172112
0.0168465
0.0164506
0.0160243
0.0155736
0.0150992
0.0146064
0.0140958
0.0135721
0.0130355
0.0124901
0.0119363
0.0113776
0.0108144
0.0102501
0.00968519
0.00912303
0.00856414
0.00801217
0.00746759
0.0069343
0.00641276
0.00590686
0.0054171
0.00494712
0.0044973
0.00407068
0.00366758
0.00329004
0.00293828
0.00261481
0.00232
0.0020607
0.00183571
0.00164379
0.00148579
0.00134018
0.00120722
0.00106147
0.000902303
0.000726682
0.000533747
0.000356219
0.00019683
0.000113508
0.00011145
0.000248672
0.000528147
0.000953904
0.00153714
0.00215143
0.00278337
0.00326689
0.00352834
0.00361852
0.0036075
0.02231
0.0235302
0.0254709
0.0275644
0.0291789
0.0302939
0.0307688
0.0307223
0.0302059
0.0292823
0.0280596
0.0265675
0.0248958
0.0230732
0.0212163
0.0193518
0.0176295
0.0160699
0.0147888
0.0138043
0.0131682
0.0128947
0.0129373
0.0132773
0.0137681
0.0143697
0.0149715
0.0155583
0.0161033
0.0166034
0.0170517
0.0174461
0.0177819
0.0180575
0.018271
0.0184218
0.0185103
0.018537
0.0185044
0.0184139
0.0182695
0.018073
0.0178297
0.0175415
0.017214
0.0168493
0.0164528
0.0160265
0.0155752
0.0151009
0.0146076
0.0140971
0.0135729
0.0130364
0.0124906
0.0119368
0.0113777
0.0108146
0.01025
0.00968514
0.00912259
0.00856377
0.00801139
0.00746688
0.00693316
0.00641168
0.00590538
0.00541568
0.00494532
0.00449556
0.00406865
0.0036656
0.00328787
0.00293616
0.00261234
0.00231756
0.0020575
0.00183254
0.00164152
0.00148354
0.00134034
0.00120738
0.00106332
0.0009041
0.000727412
0.000534414
0.000352572
0.00019323
0.000104236
0.00010243
0.000235132
0.000515128
0.000943197
0.00152703
0.00215896
0.00279086
0.00328993
0.00355108
0.00361763
0.00360661
0.0222039
0.0234238
0.0255002
0.027594
0.0292318
0.0303486
0.0308142
0.0307692
0.0302365
0.0293134
0.0280801
0.026588
0.0249066
0.0230837
0.0212121
0.019347
0.0176099
0.0160496
0.0147601
0.0137752
0.0131357
0.0128619
0.0129166
0.0132565
0.0137661
0.0143677
0.0149748
0.0155616
0.0161076
0.0166076
0.0170567
0.0174511
0.0177873
0.0180629
0.0182765
0.0184273
0.0185156
0.0185423
0.0185093
0.0184188
0.0182738
0.0180773
0.0178333
0.0175452
0.017217
0.0168523
0.0164551
0.0160289
0.015577
0.0151027
0.0146089
0.0140985
0.0135738
0.0130374
0.0124911
0.0119375
0.011378
0.0108149
0.0102499
0.00968509
0.00912211
0.00856337
0.00801054
0.00746611
0.00693193
0.00641052
0.00590377
0.00541414
0.00494338
0.00449369
0.00406646
0.00366347
0.00328554
0.00293388
0.00260967
0.00231493
0.00205404
0.00182912
0.00163906
0.00148112
0.00134051
0.00120755
0.00106532
0.000906039
0.0007282
0.000535134
0.000348635
0.000189342
9.42226e-05
9.26895e-05
0.000220511
0.000501069
0.000931635
0.00151611
0.00216709
0.00279895
0.00331482
0.00357563
0.00361667
0.00360565
0.0220893
0.0233089
0.0255318
0.027626
0.0292888
0.0304077
0.0308632
0.0308198
0.0302695
0.029347
0.0281023
0.0266102
0.0249183
0.0230951
0.0212076
0.0193418
0.0175886
0.0160277
0.0147291
0.0137438
0.0131005
0.0128266
0.0128942
0.013234
0.013764
0.0143654
0.0149785
0.0155651
0.0161122
0.0166121
0.0170621
0.0174564
0.0177931
0.0180687
0.0182824
0.0184332
0.0185214
0.018548
0.0185146
0.0184241
0.0182784
0.018082
0.0178373
0.0175491
0.0172202
0.0168556
0.0164577
0.0160315
0.0155789
0.0151047
0.0146103
0.0141
0.0135747
0.0130384
0.0124917
0.0119381
0.0113782
0.0108152
0.0102497
0.00968504
0.0091216
0.00856294
0.00800963
0.00746527
0.0069306
0.00640927
0.00590203
0.00541248
0.00494129
0.00449166
0.00406409
0.00366116
0.00328302
0.00293141
0.00260678
0.00231209
0.00205031
0.00182543
0.0016364
0.0014785
0.0013407
0.00120774
0.00106748
0.000908134
0.000729051
0.000535912
0.000344383
0.000185144
8.34102e-05
8.21714e-05
0.000204723
0.000485887
0.00091915
0.00150432
0.00217587
0.00280768
0.00334169
0.00360214
0.00361563
0.00360462
0.0219655
0.0231848
0.0255659
0.0276619
0.0293504
0.0304715
0.0309161
0.0308745
0.0303051
0.0293833
0.0281262
0.0266342
0.024931
0.0231074
0.0212027
0.0193362
0.0175657
0.0160041
0.0146956
0.0137099
0.0130626
0.0127884
0.01287
0.0132097
0.0137617
0.014363
0.0149824
0.015569
0.0161172
0.016617
0.0170679
0.0174621
0.0177994
0.0180749
0.0182889
0.0184396
0.0185276
0.0185542
0.0185203
0.0184298
0.0182835
0.0180871
0.0178415
0.0175534
0.0172236
0.0168591
0.0164604
0.0160343
0.015581
0.0151069
0.0146118
0.0141016
0.0135758
0.0130395
0.0124923
0.0119388
0.0113784
0.0108156
0.0102496
0.00968498
0.00912105
0.00856247
0.00800864
0.00746437
0.00692916
0.00640791
0.00590016
0.00541068
0.00493903
0.00448948
0.00406154
0.00365867
0.0032803
0.00292874
0.00260367
0.00230903
0.00204628
0.00182144
0.00163354
0.00147568
0.00134091
0.00120794
0.00106982
0.000910396
0.00072997
0.000536752
0.000339791
0.00018061
7.17345e-05
7.08135e-05
0.000187674
0.000469494
0.000905668
0.00149159
0.00218536
0.00281711
0.00337473
0.00363076
0.00361451
0.0036035
0.0218842
0.0231072
0.0255952
0.0277095
0.0294105
0.0305511
0.0309767
0.0309534
0.0303451
0.0294304
0.028158
0.0266768
0.0249561
0.0231471
0.0212018
0.0193362
0.0175409
0.0159786
0.0146595
0.0136733
0.0130216
0.0127472
0.0128438
0.0131835
0.0137862
0.0143893
0.0150148
0.0156029
0.0161523
0.0166533
0.0171051
0.0175
0.0178378
0.0181136
0.0183276
0.0184781
0.0185659
0.0185918
0.0185574
0.0184657
0.0183186
0.0181208
0.0178744
0.0175844
0.0172538
0.0168873
0.0164877
0.0160594
0.0156055
0.015129
0.0146334
0.0141209
0.0135946
0.0130561
0.0125085
0.0119529
0.011392
0.0108272
0.0102608
0.00969441
0.00913001
0.00856986
0.00801552
0.00746985
0.00693414
0.00641166
0.00590341
0.00541291
0.00494081
0.0044904
0.00406212
0.00365857
0.00327997
0.00292788
0.00260237
0.0023073
0.00204193
0.00181713
0.00163045
0.00147263
0.00134113
0.00120815
0.00107234
0.000912839
0.000730728
0.000537488
0.000334434
0.000175993
6.02708e-05
5.96217e-05
0.00017125
0.000452657
0.000904733
0.00148552
0.00222485
0.00284631
0.0034352
0.00368533
0.00363434
0.00362144
0.021908
0.0231373
0.025625
0.0277608
0.0294633
0.0306418
0.0310705
0.0310937
0.0304897
0.0296181
0.0283505
0.0269014
0.0251859
0.0233941
0.0214542
0.0195914
0.0177893
0.016203
0.0148892
0.013873
0.013233
0.0129459
0.0130717
0.0134269
0.0140628
0.0146854
0.0153108
0.0159159
0.0164652
0.0169791
0.0174307
0.0178337
0.0181714
0.01845
0.018664
0.0188119
0.0188997
0.0189178
0.0188835
0.0187792
0.0186322
0.0184178
0.0181715
0.0178618
0.0175312
0.0171425
0.0167431
0.0162912
0.0158374
0.0153368
0.0148412
0.0143047
0.0137784
0.0132165
0.0126689
0.012091
0.0115302
0.0109445
0.0103782
0.00979256
0.00922827
0.00865073
0.0080965
0.0075354
0.00699979
0.00646389
0.00595574
0.0054538
0.00498179
0.00452185
0.00409365
0.00368234
0.00330381
0.00294555
0.00262011
0.00232008
0.00205284
0.00182372
0.0016362
0.00147408
0.00134302
0.00120427
0.00106882
0.000903968
0.000721507
0.000528531
0.000325615
0.000175835
6.00661e-05
7.62491e-05
0.000187455
0.000490304
0.000941454
0.0015422
0.00228017
0.00291291
0.0035005
0.00374956
0.00369823
0.00368165
0.0219338
0.0231698
0.0256573
0.0278163
0.0295203
0.0307396
0.0311718
0.0312451
0.0306457
0.0298207
0.0285585
0.0271438
0.0254341
0.0236609
0.0217268
0.0198669
0.0180703
0.0164775
0.0151682
0.0141461
0.0135092
0.0132267
0.0133535
0.0137257
0.0143615
0.0150051
0.0156303
0.0162539
0.016803
0.0173308
0.0177824
0.018194
0.0185317
0.0188132
0.0190272
0.0191723
0.0192601
0.0192699
0.0192355
0.0191178
0.0189708
0.0187385
0.0184923
0.0181612
0.0178307
0.0174182
0.0170188
0.0165416
0.0160878
0.0155611
0.0150656
0.0145031
0.0139769
0.0133897
0.0128422
0.0122401
0.0116795
0.0110712
0.010505
0.00989855
0.00933437
0.00873806
0.00818394
0.00760619
0.00707068
0.00652029
0.00601225
0.00549796
0.00502604
0.00455581
0.0041277
0.003708
0.00332956
0.00296464
0.00263926
0.00233388
0.0020667
0.00183241
0.00164489
0.00147654
0.00134547
0.00119961
0.00106421
0.000893851
0.00071155
0.000518859
0.000316092
0.000175665
5.9845e-05
9.4204e-05
0.000204954
0.000530957
0.000981106
0.0016034
0.00233991
0.00298483
0.00357101
0.00381891
0.00376722
0.00374666
0.0219615
0.0232049
0.0256922
0.0278762
0.0295818
0.0308453
0.0312811
0.0314087
0.0308142
0.0300396
0.028783
0.0274057
0.0257021
0.0239489
0.0220211
0.0201644
0.0183737
0.0167739
0.0154695
0.0144411
0.0138074
0.0135298
0.0136579
0.0140483
0.014684
0.0153503
0.0159754
0.0166189
0.0171679
0.0177106
0.0181621
0.0185831
0.0189207
0.0192055
0.0194195
0.0195616
0.0196493
0.0196501
0.0196157
0.0194834
0.0193365
0.0190849
0.0188387
0.0184846
0.0181541
0.0177159
0.0173166
0.0168119
0.0163582
0.0158033
0.015308
0.0147173
0.0141913
0.0135767
0.0130294
0.0124012
0.0118407
0.0112079
0.0106419
0.010013
0.00944895
0.00883237
0.00827836
0.00768263
0.00714724
0.0065812
0.00607326
0.00554564
0.00507383
0.00459248
0.00416446
0.00373572
0.00335736
0.00298525
0.00265995
0.00234879
0.00208166
0.00184179
0.00165427
0.00147919
0.0013481
0.00119457
0.00105924
0.000882925
0.000700798
0.000508414
0.000305809
0.000175482
5.96063e-05
0.000113592
0.000223851
0.000574856
0.00102392
0.00166949
0.00240441
0.00306248
0.00364715
0.0038938
0.00384172
0.00381686
0.0219915
0.0232428
0.0257298
0.0279409
0.0296483
0.0309594
0.0313992
0.0315853
0.0309962
0.0302759
0.0290255
0.0276884
0.0259914
0.0242599
0.0223389
0.0204857
0.0187014
0.017094
0.0157948
0.0147596
0.0141294
0.0138571
0.0139865
0.0143967
0.0150322
0.0157231
0.0163481
0.017013
0.0175618
0.0181208
0.0185721
0.0190033
0.0193408
0.0196291
0.019843
0.0199819
0.0200696
0.0200606
0.0200262
0.0198782
0.0197313
0.0194589
0.0192127
0.0188338
0.0185034
0.0180373
0.0176381
0.0171038
0.0166502
0.0160649
0.0155697
0.0149486
0.0144227
0.0137786
0.0132314
0.0125751
0.0120147
0.0113556
0.0107897
0.0101366
0.00957267
0.0089342
0.00838032
0.00776517
0.00722991
0.00664697
0.00613915
0.00559713
0.00512543
0.00463208
0.00420416
0.00376565
0.00338738
0.00300751
0.00268228
0.00236488
0.00209782
0.00185192
0.0016644
0.00148206
0.00135095
0.00118913
0.00105388
0.000871127
0.000689188
0.000497136
0.000294705
0.000175284
5.93485e-05
0.000134529
0.000244256
0.000622259
0.00107016
0.00174085
0.00247407
0.00314634
0.00372938
0.00397467
0.00392217
0.00389266
0.0220239
0.0232838
0.0257704
0.0280107
0.0297201
0.0310827
0.0315267
0.031776
0.0311927
0.030531
0.0292873
0.0279937
0.0263039
0.0245957
0.022682
0.0208327
0.0190552
0.0174396
0.0161461
0.0151036
0.0144771
0.0142106
0.0143414
0.0147729
0.0154083
0.0161257
0.0167505
0.0174385
0.0179873
0.0185637
0.0190149
0.019457
0.0197944
0.0200865
0.0203004
0.0204358
0.0205235
0.0205039
0.0204696
0.0203046
0.0201577
0.0198628
0.0196167
0.0192108
0.0188805
0.0183844
0.0179853
0.017419
0.0169656
0.0163474
0.0158523
0.0151985
0.0146727
0.0139967
0.0134496
0.0127629
0.0122026
0.0115151
0.0109493
0.01027
0.00970627
0.00904416
0.00849043
0.0078543
0.00731917
0.00671799
0.0062103
0.00565272
0.00518115
0.00467484
0.00424703
0.00379797
0.00341979
0.00303154
0.0027064
0.00238226
0.00211527
0.00186286
0.00167534
0.00148516
0.00135403
0.00118325
0.00104808
0.000858387
0.000676651
0.000484957
0.000282714
0.00017507
5.90702e-05
0.000157137
0.000266291
0.000673448
0.00112009
0.00181791
0.00254929
0.0032369
0.00381816
0.004062
0.00400905
0.00397452
0.0220589
0.023328
0.0258143
0.0280861
0.0297976
0.0312157
0.0316644
0.0319819
0.0314049
0.0308066
0.02957
0.0283234
0.0266413
0.0249584
0.0230526
0.0212073
0.0194373
0.0178128
0.0165254
0.015475
0.0148525
0.0145923
0.0147247
0.0151792
0.0158144
0.0165604
0.017185
0.0178981
0.0184467
0.0190419
0.0194931
0.0199469
0.0202842
0.0205805
0.0207943
0.0209259
0.0210136
0.0209826
0.0209483
0.0207649
0.0206181
0.0202989
0.0200529
0.019618
0.0192878
0.0187592
0.0183603
0.0177593
0.017306
0.0166524
0.0161574
0.0154682
0.0149426
0.0142322
0.0136852
0.0129656
0.0124056
0.0116873
0.0111217
0.0104142
0.00985054
0.0091629
0.00860932
0.00795054
0.00741557
0.00679468
0.00628713
0.00571276
0.00524132
0.00472102
0.00429333
0.00383287
0.0034548
0.00305749
0.00273244
0.00240103
0.00213411
0.00187467
0.00168715
0.0014885
0.00135736
0.00117691
0.00104182
0.00084463
0.000663113
0.000471806
0.000269765
0.000174838
5.87696e-05
0.00018155
0.000290085
0.000728723
0.00117401
0.00190112
0.00263052
0.00333468
0.00391404
0.0041563
0.00410285
0.00406291
0.0222335
0.0235056
0.0258787
0.0281559
0.0299005
0.0313451
0.0318691
0.0322249
0.0317101
0.031158
0.0299836
0.0287674
0.02714
0.0254675
0.0235806
0.0217433
0.0199527
0.0183449
0.0170203
0.0159926
0.0153418
0.0151052
0.0152504
0.0157228
0.0164221
0.0171878
0.0178288
0.0185592
0.0191238
0.0197321
0.0201944
0.0206563
0.0209994
0.0212985
0.0215122
0.0216412
0.0217232
0.0216843
0.0216388
0.0214428
0.02128
0.0209439
0.0206779
0.020223
0.0198697
0.0193186
0.0188944
0.0182696
0.0177898
0.0171117
0.0165898
0.0158761
0.015324
0.0145898
0.0140173
0.0132751
0.0126908
0.0119513
0.0113634
0.0106363
0.0100524
0.0093471
0.00877538
0.00810097
0.00755009
0.00691561
0.00639441
0.00580845
0.00532552
0.00479557
0.0043584
0.0038901
0.00350435
0.00310081
0.00276981
0.00243339
0.00215906
0.00189386
0.00170179
0.00149526
0.0013592
0.00117068
0.00102972
0.000827273
0.00064343
0.000452572
0.000258403
0.000172442
7.39262e-05
0.000214974
0.00034447
0.000806746
0.00127461
0.00202799
0.00276315
0.00348864
0.004055
0.00430487
0.00425169
0.00420941
0.0225725
0.0238446
0.0259493
0.0282273
0.03002
0.0314691
0.0321601
0.0325261
0.0322031
0.0316658
0.0306444
0.0294456
0.0279247
0.0262712
0.0244525
0.0226344
0.0208725
0.0192818
0.0179566
0.0169414
0.0162962
0.0160665
0.0162175
0.016691
0.017406
0.0181715
0.0188624
0.0195925
0.020206
0.0208141
0.0213103
0.0217721
0.0221325
0.0224315
0.0226454
0.0227743
0.022839
0.0228001
0.022721
0.022525
0.022314
0.021978
0.0216514
0.0211966
0.0207734
0.0202225
0.0197218
0.0190972
0.0185372
0.0178593
0.0172561
0.0165426
0.0159103
0.0151763
0.0145264
0.0137844
0.013127
0.0123878
0.011732
0.0110052
0.0103596
0.0096545
0.00902768
0.00835349
0.00775432
0.00712005
0.00655735
0.00597159
0.0054537
0.00492392
0.00445789
0.00398974
0.00358064
0.00317723
0.00282809
0.00249178
0.00220273
0.00193756
0.00172524
0.00151859
0.00135538
0.00116691
0.00100166
0.000799673
0.00061014
0.000419928
0.000251787
0.00016593
0.000125254
0.000265024
0.00047142
0.00093032
0.00146328
0.00221135
0.00295543
0.00367601
0.00422029
0.00446796
0.00446621
0.00442371
0.0229035
0.0241756
0.0260668
0.0283454
0.0301861
0.0316392
0.0324744
0.0328513
0.0327355
0.032214
0.0313579
0.0301779
0.028772
0.027139
0.0253941
0.0235967
0.0218656
0.0202934
0.0189676
0.017966
0.0173268
0.0171046
0.0172619
0.0177365
0.0184685
0.0192337
0.0199785
0.0207083
0.0213745
0.0219824
0.0225153
0.0229769
0.0233562
0.0236551
0.023869
0.0239979
0.0240439
0.0240051
0.0238896
0.0236937
0.0234304
0.0230946
0.0227027
0.022248
0.0217492
0.0211985
0.0206152
0.0199908
0.0193442
0.0186666
0.0179756
0.0172624
0.0165433
0.0158096
0.0150761
0.0143343
0.013598
0.012859
0.01213
0.0114035
0.0106913
0.00998645
0.00930013
0.00862618
0.00797486
0.00734081
0.0067333
0.00614774
0.00559211
0.00506252
0.00456533
0.00409735
0.00366301
0.00325974
0.00289102
0.00255483
0.00224989
0.00198475
0.00175055
0.00154377
0.00135124
0.00116283
0.000971365
0.00076987
0.000574192
0.000384677
0.000244642
0.000158898
0.00018068
0.00031907
0.000608505
0.00106376
0.00166701
0.00240936
0.00317278
0.00388827
0.00445187
0.00469752
0.00469671
0.00465396
0.0226983
0.0239697
0.026269
0.0285501
0.0305777
0.0320432
0.0330498
0.0334459
0.0334732
0.0329742
0.0322525
0.0310963
0.0297675
0.0281587
0.026411
0.024636
0.0228534
0.0212992
0.0199214
0.0189323
0.0182761
0.0180607
0.0182811
0.0187568
0.0196086
0.0203735
0.0212093
0.0219388
0.0226682
0.0232758
0.023853
0.0243145
0.0247168
0.0250156
0.0252301
0.025359
0.0253833
0.0253445
0.0251864
0.0249906
0.0246666
0.0243308
0.0238632
0.0234087
0.022823
0.0222726
0.0215951
0.020971
0.0202264
0.019549
0.0187594
0.0180465
0.0172307
0.0164972
0.0156708
0.0149293
0.0141054
0.0133667
0.0125565
0.0118302
0.0110439
0.0103393
0.00958665
0.00891295
0.00820326
0.00756945
0.00691165
0.00632631
0.00572836
0.00519897
0.00466709
0.00419927
0.00373729
0.00333417
0.00294361
0.00260754
0.002286
0.00202092
0.00176925
0.00156241
0.00134774
0.00115937
0.000942209
0.000741175
0.000525268
0.000336748
0.000199583
0.000114904
0.000177416
0.000316069
0.000680935
0.00113463
0.00183684
0.00257454
0.00346646
0.00417429
0.00480176
0.00504275
0.00492689
0.00488391
0.0224813
0.0237538
0.0264565
0.0287487
0.0309935
0.0324594
0.0336729
0.0340902
0.0342846
0.0338102
0.0332279
0.0320976
0.0308474
0.0292648
0.0275091
0.0257584
0.0239063
0.0223716
0.0209228
0.019947
0.019263
0.0190548
0.0193614
0.0198383
0.0208393
0.0216039
0.0225397
0.0232689
0.0240669
0.0246743
0.0252996
0.0257609
0.0261883
0.0264869
0.0267021
0.0268309
0.0268317
0.0267929
0.0265887
0.026393
0.026003
0.0256674
0.0251177
0.0246634
0.0239837
0.0234334
0.022654
0.0220301
0.0211797
0.0205025
0.0196063
0.0188936
0.0179732
0.01724
0.0163131
0.0155719
0.0146532
0.0139148
0.0130167
0.0122908
0.0114244
0.0107201
0.00989564
0.00922221
0.00844936
0.00781581
0.00710361
0.00651851
0.00587478
0.0053456
0.0047762
0.00430858
0.0038167
0.00341375
0.00299956
0.00266363
0.00232223
0.00205721
0.00178744
0.00158054
0.00134416
0.00115584
0.00091129
0.000710751
0.000471436
0.000284
0.000148623
6.51428e-05
0.000169144
0.000308162
0.000752347
0.00120445
0.00201977
0.00275255
0.00377933
0.00448374
0.00516131
0.00540209
0.00517676
0.00513289
0.0225415
0.0238358
0.026538
0.0289163
0.031166
0.0328008
0.034049
0.0346671
0.0349096
0.0346359
0.0340899
0.033129
0.0319108
0.0304455
0.0287141
0.0270214
0.0251809
0.023658
0.022216
0.0212397
0.0205653
0.0203831
0.0207201
0.0212647
0.0223026
0.0231497
0.0240929
0.02489
0.0256929
0.026347
0.0269758
0.0274601
0.0278893
0.0281862
0.0284013
0.0285034
0.0285023
0.028413
0.0282053
0.0279377
0.0275427
0.0271172
0.0265614
0.0260032
0.0253164
0.0246527
0.0238657
0.0231229
0.0222645
0.021467
0.0205629
0.0197319
0.0188037
0.0179569
0.0170226
0.0161748
0.0152491
0.0144126
0.0135081
0.0126938
0.0118215
0.0110392
0.0102095
0.00946865
0.00869121
0.00800075
0.00728461
0.00665271
0.00600569
0.00543915
0.00486706
0.00437057
0.00387658
0.00345213
0.00303627
0.00268414
0.00234314
0.0020636
0.00179151
0.00156614
0.00132619
0.00111917
0.000870741
0.000664745
0.000423235
0.000259095
0.00012566
0.000100427
0.000208259
0.000432217
0.000882212
0.00142788
0.002254
0.00306726
0.00409434
0.00484177
0.00551176
0.00573724
0.00551014
0.00544459
0.0226064
0.0239243
0.026626
0.0290973
0.0313523
0.0331695
0.0344313
0.0352894
0.0355524
0.0355195
0.0349986
0.0342382
0.0330481
0.0317195
0.0300177
0.0283915
0.0265791
0.025072
0.023653
0.0226837
0.0220245
0.0218834
0.0222263
0.0228566
0.0238941
0.0248372
0.0257799
0.0266559
0.0274585
0.0281668
0.0287953
0.0293066
0.0297355
0.0300303
0.0302454
0.0303163
0.0303153
0.0301672
0.0299596
0.0296082
0.0292135
0.0286833
0.0281277
0.0274487
0.0267622
0.0259664
0.0251798
0.0242986
0.0234406
0.0225031
0.0215994
0.0206306
0.0197029
0.0187239
0.01779
0.0168182
0.0158929
0.0149424
0.0140383
0.0131211
0.0122492
0.0113761
0.0105468
0.00972743
0.00895036
0.00819366
0.00747785
0.00679149
0.00614477
0.00553474
0.00496292
0.00443282
0.00393906
0.00348959
0.00307393
0.00270294
0.0023621
0.00206384
0.00179187
0.00154299
0.00130334
0.00107329
0.000825555
0.000612979
0.000372387
0.000236238
0.000103218
0.000148018
0.000254731
0.000581575
0.0010279
0.00168796
0.00250715
0.0034169
0.00443452
0.00522838
0.00589018
0.00609915
0.00587013
0.00578118
0.0226765
0.0240199
0.026721
0.0292928
0.0315534
0.0335676
0.0348442
0.0359613
0.0362466
0.0364737
0.0359798
0.035436
0.0342763
0.0330952
0.0314253
0.029871
0.0280889
0.026599
0.0252047
0.024243
0.0236001
0.0235034
0.0238527
0.0245756
0.0256127
0.0266594
0.0276017
0.0285629
0.029365
0.030132
0.0307602
0.0313004
0.0317292
0.0320217
0.0322367
0.032274
0.032273
0.0320613
0.0318538
0.0314121
0.0310176
0.0303745
0.0298192
0.0290096
0.0283235
0.027385
0.0265987
0.0255682
0.0247107
0.0236219
0.0227187
0.0216012
0.0206739
0.0195522
0.0186188
0.0175129
0.0165882
0.0155144
0.0146108
0.0135825
0.0127111
0.0117399
0.010911
0.0100069
0.00923021
0.00840196
0.00768653
0.00694134
0.00629496
0.00563796
0.00506643
0.00450004
0.00400653
0.00353005
0.0031146
0.00272323
0.00238257
0.0020641
0.00179227
0.001518
0.00127866
0.00102375
0.000776761
0.000557081
0.000317479
0.000211555
7.89831e-05
0.000199408
0.000304913
0.000742857
0.00118522
0.00196881
0.00278051
0.00379445
0.00480185
0.00564585
0.00629882
0.00648996
0.00625887
0.00614465
0.0230388
0.0243886
0.0267423
0.02934
0.0316454
0.0337419
0.0351948
0.0364275
0.0369363
0.0372854
0.0370009
0.0365636
0.0355931
0.034492
0.0329895
0.0314866
0.0298273
0.0283691
0.0270456
0.0261113
0.0255167
0.0254565
0.0258299
0.0265962
0.0276563
0.0287431
0.0297286
0.0307227
0.0315644
0.0323539
0.0330006
0.033552
0.0339775
0.034269
0.0344587
0.0344828
0.0344353
0.0341989
0.0339255
0.0334486
0.0329712
0.0322842
0.0316324
0.0307721
0.0299795
0.0289857
0.0280867
0.0269982
0.0260256
0.0248783
0.023861
0.0226859
0.0216487
0.0204717
0.0194349
0.0182771
0.0172575
0.016136
0.0151473
0.0140761
0.0131301
0.012121
0.0112285
0.0102917
0.00946222
0.00860635
0.00784841
0.00708054
0.00640108
0.00572598
0.00512973
0.00454938
0.00403826
0.0035514
0.00312387
0.00272469
0.00237661
0.0020489
0.00176358
0.00147804
0.00122366
0.000958674
0.000712611
0.000490795
0.000286014
0.000192811
0.000130319
0.000280718
0.00047462
0.000955462
0.00148418
0.00231385
0.00318228
0.00423052
0.00521912
0.00606727
0.006668
0.00684494
0.00671727
0.006595
0.0232334
0.0245827
0.026793
0.0293909
0.0318169
0.0339198
0.0356203
0.0368691
0.0377145
0.0380884
0.0381466
0.0377404
0.0370649
0.0359999
0.034728
0.0332638
0.0317679
0.0303456
0.0291273
0.0282206
0.0277136
0.0276691
0.0280952
0.0288638
0.0299785
0.0310647
0.0321415
0.033135
0.0340475
0.0348366
0.0355176
0.0360687
0.03649
0.0367814
0.0369283
0.0369524
0.0368248
0.0365886
0.0362009
0.0357244
0.0351033
0.0344167
0.0335976
0.0327379
0.0317609
0.0307676
0.0296742
0.0285863
0.0274155
0.0262688
0.0250556
0.0238812
0.0226555
0.0214792
0.0202655
0.0191084
0.0179264
0.0168056
0.0156714
0.0146008
0.0135275
0.012519
0.0115178
0.0105815
0.00966172
0.00880636
0.00797569
0.00720827
0.00647232
0.00579763
0.00515932
0.00457932
0.00403852
0.00355195
0.00310467
0.00270573
0.00234313
0.00201565
0.00170641
0.00142141
0.00114077
0.00087688
0.000629253
0.000408894
0.000254147
0.000161609
0.000207425
0.000356116
0.00070126
0.00117677
0.00186501
0.00268488
0.0036721
0.00470668
0.00574979
0.00658498
0.00720509
0.00737614
0.00720042
0.00707768
0.0227299
0.0240799
0.0268611
0.0294696
0.0321682
0.034285
0.0363341
0.0376032
0.0388011
0.039209
0.0396043
0.0392375
0.0388308
0.0378085
0.0366749
0.035254
0.0337718
0.0323868
0.0311386
0.0302589
0.0297582
0.0297285
0.0303366
0.0311076
0.0324884
0.0335741
0.0348048
0.0357978
0.0367983
0.0375869
0.0383135
0.0388642
0.0392856
0.0395767
0.0396775
0.0397014
0.0394833
0.039247
0.0387283
0.0382517
0.0374653
0.0367788
0.0357675
0.0349079
0.0337201
0.032727
0.0314123
0.0303247
0.02893
0.0277837
0.0263506
0.0251765
0.0237405
0.0225645
0.0211543
0.0199976
0.0186359
0.0175155
0.0162206
0.0151505
0.0139365
0.0129284
0.0118071
0.0108712
0.00985159
0.00899665
0.00808572
0.00731869
0.00652075
0.00584642
0.00516263
0.00458295
0.00401103
0.00352475
0.00305878
0.00266009
0.0022875
0.00196031
0.00163575
0.00135139
0.00104496
0.000782341
0.0005158
0.000297419
0.000161348
7.08023e-05
0.000201099
0.000349465
0.000837925
0.00131047
0.00217647
0.00298864
0.00417896
0.00519835
0.0064442
0.00726989
0.00793262
0.00809408
0.00766336
0.00753715
0.0226712
0.0240333
0.0268127
0.0295088
0.0322103
0.0345521
0.0366139
0.0382274
0.0394577
0.0402555
0.0406873
0.0407053
0.0403404
0.0396524
0.0385659
0.0373951
0.0359563
0.0347339
0.0335208
0.0327499
0.0322766
0.0323527
0.0329894
0.0338866
0.0352846
0.0364857
0.0377155
0.0387847
0.0397845
0.0406046
0.0413306
0.0418663
0.0422875
0.0425171
0.0426178
0.0425356
0.0423176
0.0419342
0.0414159
0.0407567
0.0399708
0.0390727
0.0380621
0.0369701
0.0357831
0.0345449
0.0332311
0.0318939
0.0305002
0.0291074
0.0276753
0.0262647
0.0248297
0.0234328
0.0220235
0.0206655
0.0193048
0.0180059
0.0167118
0.0154875
0.0142745
0.0131372
0.0120167
0.0109763
0.00995744
0.00902143
0.00811114
0.00728451
0.00648712
0.00577216
0.00508885
0.00448464
0.00391312
0.00341531
0.00294966
0.00254798
0.00217816
0.00184875
0.00152477
0.00123729
0.000930552
0.000682914
0.000416872
0.000259723
0.000125956
0.000156958
0.000288582
0.000606732
0.00109171
0.0017494
0.00260792
0.00358642
0.00476554
0.00590143
0.00712807
0.0079842
0.00863172
0.00873459
0.00830055
0.00812534
0.0226078
0.023983
0.0267592
0.0295511
0.0322557
0.0348404
0.0369161
0.0389015
0.0401564
0.0413844
0.0418497
0.0422904
0.0419666
0.0416435
0.0406039
0.0397071
0.038316
0.0372757
0.0361037
0.0354615
0.0350165
0.0352192
0.035867
0.036907
0.038304
0.0396297
0.0408586
0.0420101
0.0430091
0.0438632
0.0445887
0.0451082
0.045529
0.0456923
0.0457929
0.0455961
0.0453783
0.044836
0.0443181
0.0434616
0.0426763
0.0415499
0.04054
0.0391969
0.0380109
0.0365079
0.0351952
0.0335884
0.0321957
0.0305368
0.0291059
0.0274399
0.0260059
0.0243703
0.0229621
0.0213868
0.0200272
0.0185353
0.0172423
0.0158515
0.0146394
0.0133627
0.012243
0.0110898
0.0100717
0.00904819
0.00813858
0.0072476
0.00645082
0.00569198
0.00500919
0.00437848
0.00380739
0.00329713
0.00283183
0.00242692
0.00205739
0.00172535
0.00140211
0.00111152
0.000806189
0.000575683
0.000311263
0.000221907
8.8765e-05
0.000253542
0.00038305
0.000887154
0.00136576
0.00222766
0.00307447
0.00423729
0.00539896
0.00666065
0.00786653
0.00875555
0.00938662
0.00942402
0.0089886
0.00876049
0.0230724
0.0244476
0.0266339
0.0294322
0.032153
0.0347859
0.0370818
0.0391529
0.0407693
0.0421055
0.0429755
0.0435297
0.0436265
0.0434119
0.0428023
0.0420024
0.0410012
0.0400438
0.039168
0.0385952
0.0383556
0.0386141
0.0393141
0.0403904
0.0417582
0.0431068
0.0443596
0.0455261
0.046537
0.047397
0.048091
0.0486071
0.0489545
0.0491049
0.0490926
0.048874
0.0485073
0.047935
0.0472368
0.046343
0.0453514
0.044182
0.042946
0.0415557
0.0401306
0.0385779
0.0370204
0.035363
0.0337272
0.0320184
0.0303526
0.0286388
0.0269846
0.0253043
0.0236953
0.0220793
0.020542
0.0190142
0.0175691
0.0161473
0.0148096
0.0135071
0.0122882
0.0111142
0.0100219
0.0089822
0.0080211
0.00711838
0.00628991
0.00552317
0.00482516
0.00418979
0.00361648
0.00310417
0.0026444
0.00223914
0.00187748
0.00154516
0.00123264
0.000942914
0.000674243
0.000449324
0.00027662
0.000201993
0.000225984
0.000415712
0.000739816
0.00127517
0.00194573
0.00283818
0.00383867
0.00502343
0.00624902
0.00751583
0.00863371
0.00950405
0.010019
0.01004
0.00983003
0.00959398
0.0223116
0.0236848
0.0264312
0.0292281
0.0322161
0.0348504
0.0375388
0.0396306
0.0417315
0.0431007
0.044518
0.0451157
0.0457364
0.0455748
0.0453726
0.0446307
0.0438933
0.04299
0.042281
0.0417496
0.0416486
0.0419306
0.0428634
0.0439432
0.0455743
0.0469218
0.0483019
0.0494674
0.0505149
0.0513742
0.0520413
0.0525569
0.0528139
0.0529642
0.0528007
0.0525822
0.0520084
0.0514366
0.0504825
0.0495895
0.0483024
0.047134
0.0455735
0.0441844
0.0424171
0.0408658
0.03896
0.0373041
0.0353248
0.0336175
0.031623
0.0299106
0.0279504
0.0262716
0.0243856
0.0227711
0.0209904
0.019464
0.0178115
0.016391
0.0148829
0.0135815
0.0122285
0.0110554
0.0098634
0.00882466
0.0077953
0.00689337
0.00602438
0.00525832
0.00454323
0.00390842
0.00333682
0.00282497
0.00238267
0.00197777
0.00164546
0.00131373
0.00102128
0.000733285
0.000489361
0.000266922
0.000166591
9.40326e-05
0.000271096
0.000460178
0.00101721
0.00154676
0.00248748
0.00336747
0.00462773
0.00579232
0.00725257
0.00849124
0.0098251
0.0106709
0.0112133
0.0112208
0.0105238
0.0102872
0.0220377
0.0233983
0.0261512
0.028991
0.0319814
0.034823
0.0375476
0.0400071
0.0421691
0.0440242
0.045508
0.0466513
0.0473462
0.0477308
0.0476087
0.0473548
0.0466892
0.0461727
0.0455211
0.04527
0.0452133
0.0456916
0.0466689
0.0478822
0.0495373
0.0509515
0.0523385
0.0535057
0.0545546
0.0553543
0.0560194
0.0564169
0.0566686
0.0566463
0.0564744
0.0560344
0.0554493
0.0546137
0.0536459
0.0524547
0.0511519
0.0496598
0.0480821
0.0463537
0.0445684
0.0426723
0.0407483
0.0387525
0.0367554
0.0347228
0.0327113
0.030697
0.0287211
0.0267708
0.0248709
0.0230208
0.0212279
0.0195048
0.0178421
0.0162654
0.0147489
0.0133309
0.0119715
0.0107191
0.00952252
0.0084381
0.00740582
0.00648726
0.00561678
0.00485795
0.00414258
0.00353338
0.00296244
0.00248916
0.00204834
0.00168962
0.00136053
0.00107886
0.000789514
0.000570071
0.000329329
0.000225638
0.000131265
0.000249725
0.0004372
0.000878561
0.0014461
0.00224759
0.00319151
0.00431569
0.00557234
0.0069169
0.0083678
0.00969487
0.0110031
0.0118256
0.0123412
0.0122179
0.011512
0.0111896
0.0220284
0.0233774
0.0258399
0.0287056
0.0316748
0.0346703
0.0374587
0.0402126
0.042518
0.0447676
0.04644
0.0480268