/*--------------------------------*- C++ -*----------------------------------*\
| =========                 |                                                 |
| \\      /  F ield         | OpenFOAM: The Open Source CFD Toolbox           |
|  \\    /   O peration     | Version:  v1806                                 |
|   \\  /    A nd           | Web:      www.OpenFOAM.com                      |
|    \\/     M anipulation  |                                                 |
\*---------------------------------------------------------------------------*/
FoamFile
{
    version     2.0;
    format      ascii;
    class       volVectorField;
    location    "5";
    object      U;
}
// * * * * * * * * * * * * * * * * * * * * * * * * * * * * * * * * * * * * * //

dimensions      [0 1 -1 0 0 0 0];


internalField   nonuniform List<vector> 
8000
(
(0.0532447 2.39899e-05 0)
(0.0437751 -0.0024484 9.41098e-21)
(0.0387838 -0.00751117 -4.96194e-20)
(-0.00325645 0.000570873 7.24522e-20)
(-0.0202972 0.0113619 4.65184e-20)
(-0.0174645 0.0118999 -2.35623e-25)
(-0.0131836 0.010053 4.7229e-25)
(-0.010911 0.0088031 1.43398e-22)
(-0.0100626 0.00813052 6.54971e-21)
(-0.00955724 0.0075692 1.05247e-24)
(-0.00946529 0.00734432 1.41409e-20)
(-0.00934279 0.00714388 -1.68635e-20)
(-0.00943027 0.00713946 4.40574e-24)
(-0.00965829 0.00726466 1.07972e-23)
(-0.010055 0.00740712 -4.61075e-20)
(-0.0106762 0.00751098 0)
(-0.0114974 0.00749063 5.28821e-20)
(-0.0124208 0.00719563 -2.79365e-20)
(-0.0135272 0.00663092 -2.91912e-20)
(-0.0147246 0.00581135 3.03459e-20)
(-0.0158441 0.00466674 -3.13527e-20)
(-0.0167903 0.00319473 3.23261e-20)
(-0.0177849 0.00147347 -4.89079e-23)
(-0.020641 0.000111533 -3.26886e-23)
(-0.0234228 4.18648e-05 0)
(-0.0243089 4.4985e-05 0)
(-0.0246737 5.06088e-05 0)
(-0.024464 5.83558e-05 0)
(-0.0238975 6.49723e-05 0)
(-0.0229805 7.03542e-05 0)
(-0.021784 7.25914e-05 2.79394e-23)
(-0.0203212 7.0573e-05 -2.76424e-23)
(-0.0186078 6.19449e-05 -1.51713e-23)
(-0.0166115 4.57948e-05 3.05341e-23)
(-0.0143135 2.31626e-05 -1.52977e-23)
(-0.0117233 -5.32847e-06 1.61587e-23)
(-0.00884022 -3.99174e-05 -1.56323e-23)
(-0.00565055 -7.77303e-05 0)
(-0.00218173 -0.000106484 1.58709e-23)
(0.00131826 -0.000105751 4.21624e-25)
(0.0044235 -7.86363e-05 -1.64825e-23)
(0.0070449 -4.84645e-05 -8.9282e-24)
(0.00927866 -2.4274e-05 9.20048e-24)
(0.0112111 -6.35045e-06 0)
(0.0128999 6.61749e-06 0)
(0.0143846 1.58781e-05 0)
(0.0156918 2.2485e-05 5.41411e-24)
(0.0168377 2.7171e-05 -2.70003e-24)
(0.0178355 3.01692e-05 -1.3844e-24)
(0.0187044 3.14436e-05 1.43395e-24)
(0.0194694 3.12019e-05 0)
(0.0201494 2.99092e-05 3.0111e-24)
(0.0207565 2.79817e-05 -3.02707e-24)
(0.0212986 2.57049e-05 0)
(0.021781 2.32564e-05 0)
(0.0222078 2.07441e-05 -1.27299e-23)
(0.0225828 1.82435e-05 1.27659e-23)
(0.022909 1.58038e-05 0)
(0.0231889 1.34695e-05 0)
(0.023425 1.12583e-05 0)
(0.0236185 9.20224e-06 0)
(0.0237714 7.28849e-06 0)
(0.023883 5.55548e-06 2.72177e-23)
(0.0239557 3.9395e-06 -5.46792e-23)
(0.0239854 2.52554e-06 2.74592e-23)
(0.0239771 1.14394e-06 0)
(0.0239191 1.93563e-08 -2.80694e-23)
(0.0238259 -1.2718e-06 -5.19922e-18)
(0.0236662 -2.10861e-06 -5.26114e-18)
(0.0234831 -3.58383e-06 5.74354e-23)
(0.0231944 -4.02766e-06 -5.74521e-23)
(0.0229207 -6.29968e-06 0)
(0.0224352 -5.96655e-06 0)
(0.0220665 -1.06211e-05 0)
(0.0211886 -8.42472e-06 0)
(0.0206308 -1.81016e-05 6.06766e-23)
(0.0180956 4.926e-05 1.76163e-21)
(0.016089 0.00132342 3.22128e-20)
(0.0168649 0.00328541 -6.55809e-20)
(0.0174297 0.00528034 1.34555e-19)
(0.0181453 0.00736483 -1.38085e-19)
(0.0188271 0.00947635 0)
(0.0198584 0.0117678 -7.05405e-23)
(0.0214185 0.014205 1.55543e-22)
(0.0233633 0.0166403 -1.45654e-19)
(0.0256113 0.0190213 0)
(0.0281662 0.0212944 -3.36916e-23)
(0.0303438 0.0230967 3.36618e-23)
(0.0321537 0.0247882 1.29912e-19)
(0.0342169 0.0268474 -1.23179e-19)
(0.0367745 0.0295054 -1.33278e-23)
(0.0407452 0.0334786 1.32215e-23)
(0.0489445 0.0401352 -1.71394e-19)
(0.061774 0.0483426 0)
(0.0826741 0.0582204 2.39817e-20)
(0.112624 0.0652605 3.1032e-24)
(0.141485 0.0557989 -2.99575e-19)
(0.115848 0.0226515 -5.35867e-23)
(0.0691553 0.00379151 0)
(0.0275698 4.30323e-05 -3.00958e-21)
(0.160302 -0.000325044 -1.10871e-21)
(0.141371 -0.00724378 -1.11724e-20)
(0.121798 -0.0216968 5.90651e-20)
(0.00914664 -0.00117868 8.84831e-20)
(-0.0476717 0.0301904 -5.76323e-20)
(-0.0440115 0.032502 2.97882e-20)
(-0.0348581 0.0283048 0)
(-0.0298649 0.0253588 -1.78402e-22)
(-0.0281344 0.0237226 4.7394e-25)
(-0.0271685 0.0222813 1.27255e-20)
(-0.0271586 0.0217186 -3.38441e-20)
(-0.0270552 0.0212247 2.00756e-20)
(-0.0274399 0.0212679 0)
(-0.0281796 0.0216802 1.26257e-23)
(-0.0293914 0.0221425 6.45101e-23)
(-0.0312393 0.0224807 -1.43779e-23)
(-0.033676 0.0224417 -6.00064e-20)
(-0.0364872 0.0216037 3.13239e-20)
(-0.0398406 0.0199463 6.4392e-20)
(-0.0434483 0.0175 -3.29462e-20)
(-0.0468645 0.0140703 6.72691e-20)
(-0.0498367 0.00966479 -3.42676e-20)
(-0.0530029 0.00458557 8.73212e-21)
(-0.0598743 0.000563407 3.49395e-23)
(-0.0658942 0.000233336 -3.683e-23)
(-0.0673352 9.8961e-05 -1.57407e-24)
(-0.0670973 1.9522e-05 1.99803e-23)
(-0.065104 -4.76533e-05 0)
(-0.0619175 -0.000107448 0)
(-0.0576409 -0.000161939 -2.4581e-23)
(-0.0525487 -0.000211672 -1.48416e-24)
(-0.0467974 -0.000256561 -1.37883e-24)
(-0.0405927 -0.000297357 2.41465e-23)
(-0.0341014 -0.00033366 0)
(-0.0274943 -0.000363978 0)
(-0.0209014 -0.000387911 0)
(-0.0144438 -0.000406492 0)
(-0.00822242 -0.000419274 0)
(-0.00232109 -0.000419044 0)
(0.00320703 -0.000395548 0)
(0.00840866 -0.000356874 -1.10454e-23)
(0.0133807 -0.000319903 -2.65496e-25)
(0.018166 -0.000289009 1.28672e-23)
(0.0227742 -0.000262339 -7.09014e-24)
(0.0272005 -0.000238282 7.4619e-24)
(0.0314358 -0.000215925 0)
(0.0354705 -0.000194682 0)
(0.0392963 -0.000174258 0)
(0.0429051 -0.000154848 2.35247e-24)
(0.0462916 -0.000137027 2.42526e-24)
(0.049455 -0.000120975 2.55362e-24)
(0.0523947 -0.000106388 -2.61748e-24)
(0.055112 -9.29872e-05 0)
(0.0576092 -8.05917e-05 0)
(0.0598897 -6.9108e-05 0)
(0.061958 -5.84877e-05 0)
(0.0638198 -4.86874e-05 0)
(0.0654812 -3.96684e-05 2.47648e-23)
(0.0669483 -3.13696e-05 -5.02989e-23)
(0.0682284 -2.37448e-05 2.55071e-23)
(0.0693269 -1.67004e-05 0)
(0.0702516 -1.01975e-05 -2.65397e-23)
(0.0710048 -4.08824e-06 2.6736e-23)
(0.0715959 1.6111e-06 0)
(0.0720197 7.17223e-06 0)
(0.0722906 1.24102e-05 0)
(0.0723861 1.78987e-05 5.66206e-23)
(0.0723391 2.29531e-05 -5.68531e-23)
(0.0720839 2.89052e-05 0)
(0.0717122 3.37312e-05 -5.84631e-23)
(0.0710474 4.10947e-05 -4.56982e-25)
(0.0703422 4.58187e-05 5.91519e-23)
(0.0691038 5.80534e-05 0)
(0.0680142 6.40318e-05 0)
(0.0657037 9.52017e-05 0)
(0.0638762 0.000145366 0)
(0.0576679 0.000471093 -1.04083e-21)
(0.0522828 0.00431342 -3.15014e-20)
(0.0531279 0.0100574 6.42066e-20)
(0.0543455 0.0160375 1.3288e-19)
(0.0562424 0.0223414 0)
(0.0582834 0.0288317 0)
(0.0611587 0.0358041 7.37843e-23)
(0.0653189 0.0430855 3.12523e-19)
(0.0705269 0.0502786 -1.59779e-19)
(0.0766086 0.0572501 -7.77043e-23)
(0.0835487 0.0638638 -1.59571e-19)
(0.089786 0.0692655 1.56022e-19)
(0.0951335 0.0744128 -1.51976e-19)
(0.100977 0.0805431 0)
(0.108059 0.088359 1.36801e-19)
(0.118727 0.0997768 -1.24074e-19)
(0.139788 0.118198 1.04608e-19)
(0.173021 0.140522 0)
(0.226343 0.166347 -2.6124e-20)
(0.301902 0.183234 -7.42055e-20)
(0.37853 0.157107 -1.05243e-21)
(0.335241 0.0696102 -2.6419e-19)
(0.224137 0.0148317 7.55387e-24)
(0.112417 0.000823485 5.99303e-25)
(0.274786 -0.000805947 1.06543e-21)
(0.252042 -0.0122582 0)
(0.214606 -0.0355655 5.9983e-24)
(0.041851 -0.00926252 -8.59664e-20)
(-0.0622804 0.041328 0)
(-0.0633542 0.0465992 -5.8974e-20)
(-0.052687 0.0424665 0)
(-0.0465689 0.0393907 0)
(-0.0446731 0.0375927 0)
(-0.0437063 0.0358051 -1.2042e-20)
(-0.0440373 0.0351896 3.1809e-20)
(-0.044208 0.0346599 -1.88414e-20)
(-0.0450397 0.0349082 -2.13304e-20)
(-0.0463756 0.0357025 1.09169e-23)
(-0.0484247 0.0365397 2.53956e-20)
(-0.0514364 0.0371137 9.30773e-25)
(-0.0553325 0.037004 5.55121e-23)
(-0.0597874 0.035557 0)
(-0.0649073 0.0326715 -2.95441e-20)
(-0.0700971 0.0283982 2.60163e-23)
(-0.0746387 0.0225419 -2.99044e-20)
(-0.0782584 0.0152999 1.49005e-20)
(-0.0820331 0.00732549 2.87139e-23)
(-0.0895931 0.00115504 0)
(-0.0948496 0.000454934 1.57413e-23)
(-0.0941744 4.7824e-05 -3.13377e-23)
(-0.0913455 -0.000187369 1.55327e-23)
(-0.0864325 -0.000376147 0)
(-0.0802926 -0.000522585 -1.7515e-23)
(-0.0731336 -0.000640067 1.65353e-23)
(-0.0653349 -0.000730507 1.76601e-23)
(-0.0570942 -0.000797807 -1.65573e-23)
(-0.0486485 -0.000844757 0)
(-0.0401737 -0.000874297 0)
(-0.0318319 -0.00088832 -1.62937e-23)
(-0.0237284 -0.000888758 -5.93396e-25)
(-0.0159675 -0.000877895 2.96036e-23)
(-0.00863829 -0.000857015 -1.39198e-23)
(-0.00180154 -0.00082301 0)
(0.00457819 -0.000774485 0)
(0.0106814 -0.000723301 0)
(0.0166432 -0.000680534 0)
(0.022494 -0.000645248 0)
(0.0282308 -0.000613724 0)
(0.0338412 -0.000583755 -5.01552e-24)
(0.0393113 -0.000554266 -8.68562e-26)
(0.0446289 -0.00052473 5.60669e-24)
(0.0497853 -0.000494957 0)
(0.054772 -0.000465173 0)
(0.0595795 -0.000435993 0)
(0.0641977 -0.000407602 0)
(0.0686155 -0.000379722 -3.68598e-24)
(0.0728248 -0.000352203 3.80606e-24)
(0.0768192 -0.000325014 8.00406e-24)
(0.0805934 -0.000298203 -8.23092e-24)
(0.0841437 -0.000271846 0)
(0.0874669 -0.000246009 1.77806e-23)
(0.0905605 -0.000220744 -3.65265e-23)
(0.0934211 -0.00019607 1.87311e-23)
(0.0960474 -0.000171991 0)
(0.0984352 -0.000148462 0)
(0.100584 -0.000125435 2.03967e-23)
(0.102486 -0.000102781 2.10137e-23)
(0.104143 -8.04178e-05 2.9573e-25)
(0.105539 -5.80744e-05 -8.67409e-23)
(0.106683 -3.56718e-05 4.40552e-23)
(0.107534 -1.26848e-05 0)
(0.108126 1.08241e-05 -4.59419e-23)
(0.10836 3.58837e-05 4.63398e-23)
(0.10834 6.174e-05 0)
(0.107817 9.12441e-05 0)
(0.107094 0.000123237 0)
(0.105503 0.000166285 0)
(0.103875 0.000218385 -4.95453e-23)
(0.100367 0.000312555 4.9229e-23)
(0.09709 0.000515899 -9.9771e-23)
(0.0878967 0.00116103 9.71602e-23)
(0.078897 0.00671778 2.45915e-20)
(0.0785482 0.0148091 -4.94221e-20)
(0.0800537 0.0234463 -3.30629e-23)
(0.0832931 0.0328166 1.06179e-19)
(0.0874308 0.0428855 0)
(0.0932154 0.0540776 0)
(0.101184 0.0661324 -1.26099e-19)
(0.11091 0.0783852 1.32234e-19)
(0.121985 0.0904394 0)
(0.134284 0.101952 1.387e-19)
(0.145695 0.111794 -1.38334e-19)
(0.155681 0.121213 1.36386e-19)
(0.166058 0.131876 6.46068e-23)
(0.178067 0.144913 -1.26656e-19)
(0.195166 0.162985 1.15834e-19)
(0.227016 0.190387 1.29769e-23)
(0.276887 0.222653 6.04812e-20)
(0.35485 0.257762 1.1261e-20)
(0.462654 0.277578 1.3987e-19)
(0.57519 0.238081 1.68224e-19)
(0.53998 0.115258 2.47165e-19)
(0.395803 0.0298096 -7.10922e-24)
(0.231069 0.0029224 1.70335e-21)
(0.398397 -0.000901646 0)
(0.371894 -0.0170997 -9.96421e-21)
(0.31725 -0.0489417 -2.84884e-24)
(0.0967475 -0.0232568 8.25637e-20)
(-0.0599388 0.0436938 -5.73231e-20)
(-0.072284 0.0528869 2.79048e-20)
(-0.063757 0.0508531 0)
(-0.0582732 0.0490254 0)
(-0.057054 0.0478828 0)
(-0.0566367 0.0463426 0)
(-0.0576598 0.046052 -1.38619e-20)
(-0.0584621 0.0458297 1.6617e-20)
(-0.0600033 0.0465343 6.39752e-23)
(-0.0620906 0.0478634 -2.08893e-20)
(-0.0649422 0.049112 0)
(-0.0687911 0.0497956 0)
(-0.0734626 0.0493235 2.48414e-20)
(-0.0784955 0.0469008 4.92713e-23)
(-0.08388 0.0424445 -2.52388e-20)
(-0.0888891 0.0362022 2.50222e-20)
(-0.0928762 0.0281911 -2.45519e-20)
(-0.0958139 0.0188626 -2.59358e-23)
(-0.0990001 0.00907677 0)
(-0.105433 0.00163254 0)
(-0.10883 0.000538143 -2.4072e-23)
(-0.10642 -0.000163608 2.25686e-23)
(-0.101972 -0.00055359 0)
(-0.0955495 -0.000855198 -2.51653e-23)
(-0.0880333 -0.0010748 2.36736e-23)
(-0.0796241 -0.00124252 0)
(-0.0706933 -0.00136308 0)
(-0.0614267 -0.0014454 0)
(-0.0520498 -0.00149388 0)
(-0.0427259 -0.00151414 0)
(-0.0336057 -0.00151081 0)
(-0.0247869 -0.00148785 0)
(-0.0163667 -0.00144815 0)
(-0.00842652 -0.00139433 0)
(-0.00101533 -0.00132733 -1.10092e-23)
(0.00592974 -0.00125287 1.64046e-23)
(0.0126145 -0.00118572 -5.70279e-24)
(0.0191727 -0.00113273 0)
(0.0256311 -0.00108861 0)
(0.0319854 -0.00104823 7.09035e-24)
(0.0382233 -0.00100895 -7.40033e-24)
(0.0443316 -0.000969612 -3.98882e-24)
(0.0502989 -0.000929773 8.36078e-24)
(0.0561175 -0.000889322 -4.37522e-24)
(0.0617795 -0.000848375 0)
(0.0672759 -0.000807378 0)
(0.0725959 -0.000766408 0)
(0.0777277 -0.000725215 0)
(0.0826623 -0.000683772 0)
(0.0873922 -0.000642146 0)
(0.0919111 -0.00060045 0)
(0.0962137 -0.000558783 0)
(0.100295 -0.000517218 0)
(0.10415 -0.000475789 0)
(0.107774 -0.0004345 -1.38232e-23)
(0.11116 -0.000393301 1.41392e-23)
(0.114301 -0.000352116 0)
(0.117192 -0.000310788 3.01618e-23)
(0.11982 -0.000269153 -6.17224e-23)
(0.12218 -0.000226891 3.15444e-23)
(0.124248 -0.000183738 0)
(0.126025 -0.000139096 0)
(0.127462 -9.26045e-05 3.40349e-23)
(0.128581 -4.31309e-05 -3.45021e-23)
(0.129267 9.64694e-06 0)
(0.129611 6.78001e-05 -3.6066e-23)
(0.129331 0.00013187 3.63661e-23)
(0.128719 0.00020857 0)
(0.127039 0.000300724 0)
(0.125122 0.000428798 0)
(0.120964 0.000615296 0)
(0.116726 0.00102319 0)
(0.106103 0.00199086 0)
(0.0951627 0.00842019 -1.85734e-20)
(0.0937728 0.0176548 3.69945e-20)
(0.095255 0.0276977 -7.54042e-20)
(0.0991963 0.0387437 -2.23364e-22)
(0.104665 0.0508576 -8.21392e-20)
(0.112463 0.0645672 -8.53567e-23)
(0.123254 0.0796747 9.06183e-23)
(0.136636 0.0955152 9.83871e-20)
(0.152113 0.111596 0)
(0.169481 0.12746 0)
(0.186412 0.141904 -1.08974e-19)
(0.201984 0.156178 -3.50656e-22)
(0.218014 0.172007 0)
(0.235955 0.190705 0)
(0.259674 0.214998 0)
(0.30021 0.248994 0)
(0.362042 0.287229 -5.22318e-20)
(0.455256 0.325465 6.56831e-21)
(0.58037 0.342344 -6.07755e-20)
(0.715529 0.29342 -1.46731e-19)
(0.708266 0.153864 -1.39041e-21)
(0.567174 0.0469735 0)
(0.376276 0.00668124 -1.57856e-21)
(0.520858 -0.00011749 -8.8196e-22)
(0.488044 -0.0210396 1.77262e-20)
(0.424015 -0.0608842 -5.0879e-24)
(0.173101 -0.0423987 -7.64581e-20)
(-0.0363402 0.0355332 5.43153e-20)
(-0.0691025 0.0509249 1.11312e-24)
(-0.0672658 0.0532862 0)
(-0.0639108 0.0536011 0)
(-0.0638595 0.0535537 0)
(-0.0642595 0.0526105 -8.05022e-21)
(-0.0660689 0.0528319 0)
(-0.0676201 0.0530903 -7.01231e-24)
(-0.0699191 0.0543463 3.10344e-20)
(-0.0727438 0.0562345 1.73486e-20)
(-0.0762303 0.0578509 1.911e-23)
(-0.0805028 0.0585169 -1.99021e-20)
(-0.0853119 0.0575405 0)
(-0.0901949 0.054154 2.07456e-23)
(-0.0951746 0.0484053 2.04702e-20)
(-0.0996059 0.0407578 0)
(-0.102998 0.0313905 1.96055e-20)
(-0.105444 0.0208697 -9.58566e-21)
(-0.108155 0.0101267 0)
(-0.113477 0.00198362 0)
(-0.115578 0.0005128 -1.86134e-23)
(-0.112317 -0.000478289 1.74025e-23)
(-0.107102 -0.00102314 -1.91509e-23)
(-0.0999952 -0.00143995 3.75316e-23)
(-0.0918454 -0.00173508 -3.8191e-23)
(-0.0828516 -0.00195594 1.87445e-23)
(-0.073373 -0.00210917 -2.01936e-23)
(-0.0635906 -0.00220856 9.04563e-24)
(-0.053722 -0.00225961 -5.04312e-25)
(-0.0439233 -0.00227034 -4.60221e-25)
(-0.03434 -0.00224775 9.62192e-24)
(-0.0250698 -0.0021976 9.93645e-24)
(-0.0162086 -0.00212346 -9.45959e-24)
(-0.00783414 -0.00202987 0)
(1.22005e-05 -0.00192369 9.55944e-24)
(0.00740315 -0.00182046 -1.91283e-23)
(0.0145402 -0.0017374 9.86051e-24)
(0.0215458 -0.00167449 0)
(0.0284443 -0.00162124 5.63665e-24)
(0.0352319 -0.00157109 -5.83746e-24)
(0.0418972 -0.00152112 6.26707e-24)
(0.0484279 -0.0014702 -6.4772e-24)
(0.0548138 -0.00141811 0)
(0.0610478 -0.00136491 0)
(0.0671225 -0.00131067 0)
(0.0730299 -0.00125569 0)
(0.07876 -0.00119997 0)
(0.0843019 -0.00114332 0)
(0.0896468 -0.00108585 0)
(0.094788 -0.00102775 0)
(0.0997189 -0.000969203 -9.47863e-24)
(0.104434 -0.000910316 9.70682e-24)
(0.108929 -0.000851161 0)
(0.113198 -0.000791729 0)
(0.117233 -0.000731979 0)
(0.12103 -0.000671763 2.20932e-23)
(0.124578 -0.000610937 -2.25415e-23)
(0.127871 -0.000549163 -2.33246e-23)
(0.130893 -0.000486199 2.37599e-23)
(0.133637 -0.000421382 0)
(0.136075 -0.000354413 -2.51257e-23)
(0.138204 -0.000283988 2.55294e-23)
(0.139971 -0.000209922 -2.62807e-23)
(0.14139 -0.000129487 5.34904e-23)
(0.142342 -4.32063e-05 2.75804e-23)
(0.142903 5.4818e-05 -5.53823e-23)
(0.142786 0.000162229 5.67528e-23)
(0.142253 0.000295798 -1.14786e-22)
(0.14057 0.000450722 1.16188e-22)
(0.138502 0.000675798 -1.17358e-22)
(0.13407 0.000977142 5.85784e-23)
(0.129307 0.00162188 5.93367e-23)
(0.118254 0.00292456 -5.7904e-23)
(0.106571 0.00983069 2.93784e-20)
(0.104443 0.0196565 -2.91537e-20)
(0.105778 0.0305213 0)
(0.110007 0.0425495 -6.04313e-20)
(0.116164 0.0558441 9.90666e-23)
(0.125039 0.0709421 -6.54469e-20)
(0.137332 0.0876701 -6.70327e-23)
(0.1527 0.105413 -7.23412e-20)
(0.17067 0.123691 -7.53194e-20)
(0.191037 0.142062 -3.98786e-23)
(0.211578 0.159496 1.60688e-19)
(0.231284 0.177287 -8.20944e-20)
(0.251888 0.197108 -8.18682e-20)
(0.274913 0.220326 0)
(0.30418 0.249325 -1.66387e-23)
(0.350735 0.287251 1.69374e-23)
(0.419484 0.327765 0)
(0.519171 0.364504 -5.03337e-21)
(0.648527 0.374871 0)
(0.790621 0.319276 1.13284e-19)
(0.81646 0.178817 -9.17277e-20)
(0.709646 0.0629228 2.10875e-20)
(0.523719 0.0118924 1.40595e-21)
(0.624517 0.00154946 7.56575e-22)
(0.585094 -0.0234624 -7.56404e-21)
(0.522383 -0.0697508 -4.41665e-24)
(0.264561 -0.0642353 4.80975e-24)
(0.0106092 0.0165115 -5.06324e-20)
(-0.0560653 0.0431985 -2.19354e-20)
(-0.0655406 0.0519253 0)
(-0.0654558 0.0548701 -8.22109e-22)
(-0.0667847 0.0560598 -1.20243e-24)
(-0.0680213 0.055803 1.03337e-22)
(-0.0704891 0.0565117 -8.68501e-21)
(-0.0726508 0.0572027 1.06196e-20)
(-0.0754924 0.0588879 -1.23821e-20)
(-0.0788205 0.0611825 -1.41578e-23)
(-0.0827128 0.0630612 1.41804e-23)
(-0.0872055 0.0637096 1.60748e-20)
(-0.0920326 0.0623938 -1.65019e-20)
(-0.0967832 0.0584141 -1.66429e-20)
(-0.101512 0.0519007 1.64522e-20)
(-0.105648 0.0434352 -1.61636e-20)
(-0.108789 0.0332879 0)
(-0.11105 0.0220903 0)
(-0.113481 0.010827 1.51677e-23)
(-0.117924 0.00226017 1.4284e-23)
(-0.119144 0.000417774 0)
(-0.115434 -0.000867775 1.53955e-23)
(-0.109805 -0.00157703 1.18487e-24)
(-0.102337 -0.00211732 -3.10729e-23)
(-0.0938403 -0.00249378 3.18479e-23)
(-0.0845175 -0.00277153 -1.57526e-23)
(-0.0747182 -0.00295915 0)
(-0.0646222 -0.0030756 -1.73318e-23)
(-0.0544419 -0.00312785 1.6616e-23)
(-0.0443284 -0.00312673 -1.75769e-23)
(-0.0344237 -0.00308169 1.68732e-23)
(-0.024827 -0.00300051 0)
(-0.0156333 -0.00288775 -8.74751e-24)
(-0.00691656 -0.00275045 8.41314e-24)
(0.00128788 -0.00260212 -8.67244e-24)
(0.00905544 -0.00246853 8.57497e-24)
(0.0165716 -0.00236866 0)
(0.0239443 -0.00229493 0)
(0.0311963 -0.00223165 5.02595e-24)
(0.038325 -0.00217079 1.00218e-25)
(0.0453201 -0.00210912 -1.09341e-23)
(0.0521707 -0.00204553 5.66697e-24)
(0.0588675 -0.00198002 0)
(0.065404 -0.0019128 0)
(0.0717732 -0.0018439 0)
(0.0779683 -0.00177351 0)
(0.08398 -0.00170153 0)
(0.0897986 -0.00162782 -3.61651e-24)
(0.0954162 -0.00155265 3.69762e-24)
(0.100826 -0.00147632 0)
(0.106023 -0.00139907 0)
(0.111001 -0.00132105 0)
(0.115755 -0.00124231 0)
(0.12028 -0.00116281 0)
(0.124569 -0.00108244 0)
(0.128615 -0.00100095 1.82411e-23)
(0.132409 -0.000918101 -1.85619e-23)
(0.135942 -0.000833351 0)
(0.139199 -0.000746352 -1.96162e-23)
(0.142169 -0.000656039 -1.41907e-25)
(0.144826 -0.000562052 4.08943e-23)
(0.147162 -0.000462269 -6.27412e-23)
(0.149124 -0.000356654 4.2501e-23)
(0.150719 -0.000240662 0)
(0.151831 -0.000115681 0)
(0.152521 2.86125e-05 4.53325e-23)
(0.152509 0.000186808 3.67387e-25)
(0.152025 0.000386985 -4.64339e-23)
(0.150363 0.000616056 0)
(0.148208 0.000954385 0)
(0.143676 0.00138933 0)
(0.138617 0.00229341 4.85629e-23)
(0.127567 0.00394202 -3.83029e-22)
(0.11571 0.0111379 -1.22173e-20)
(0.113057 0.0212899 2.42119e-20)
(0.114217 0.0326929 0)
(0.118559 0.0453729 -4.94736e-20)
(0.125108 0.0594357 5.07231e-20)
(0.134613 0.075379 5.22816e-20)
(0.147747 0.0930208 -5.38055e-20)
(0.164193 0.111782 -5.54509e-20)
(0.183496 0.131195 2.5133e-22)
(0.205423 0.150846 -5.836e-20)
(0.227914 0.169911 -1.18884e-19)
(0.250023 0.189735 6.01019e-20)
(0.273429 0.211919 4.53262e-22)
(0.299704 0.237835 -2.96981e-23)
(0.332591 0.269474 0)
(0.382532 0.308859 0)
(0.454366 0.349023 2.61124e-20)
(0.555365 0.382223 4.27517e-25)
(0.682761 0.385972 3.23623e-24)
(0.821719 0.325638 -7.72987e-20)
(0.866321 0.189953 7.65988e-24)
(0.802186 0.0747901 -2.69745e-22)
(0.643662 0.0176035 -4.62609e-24)
(0.701219 0.00372903 1.95356e-24)
(0.657998 -0.0244019 1.50896e-24)
(0.602969 -0.0747025 -3.72337e-24)
(0.358793 -0.0846367 -3.01147e-24)
(0.0759679 -0.00970812 4.42265e-20)
(-0.0353087 0.0321095 1.87402e-20)
(-0.0600674 0.0482676 0)
(-0.0644504 0.0542224 6.91006e-22)
(-0.0674429 0.0567822 0)
(-0.0695606 0.0572667 5.20218e-21)
(-0.072612 0.0584387 7.13234e-21)
(-0.0752701 0.0595027 -8.69224e-21)
(-0.078478 0.0615034 0)
(-0.082114 0.0640704 -1.14976e-23)
(-0.0862476 0.0661287 1.23092e-20)
(-0.0908783 0.0667907 0)
(-0.0957536 0.0653046 1.35403e-20)
(-0.100498 0.0610165 1.373e-20)
(-0.105159 0.0540808 -1.36645e-20)
(-0.109211 0.045135 1.35641e-20)
(-0.112299 0.0345128 1.33245e-20)
(-0.114523 0.0229003 -6.60461e-21)
(-0.116767 0.0113354 -3.25842e-21)
(-0.120482 0.00247946 0)
(-0.121027 0.000263695 0)
(-0.117031 -0.00132276 0)
(-0.111136 -0.00220682 0)
(-0.103444 -0.00287832 0)
(-0.0947273 -0.00334136 1.44145e-23)
(-0.0851935 -0.0036793 -1.38551e-23)
(-0.0751826 -0.00390304 -1.51373e-23)
(-0.0648748 -0.00403713 3.00244e-23)
(-0.054477 -0.00409036 -1.48869e-23)
(-0.0441362 -0.00407658 0)
(-0.0339913 -0.0040077 1.5984e-23)
(-0.0241421 -0.00389355 -1.54469e-23)
(-0.0146822 -0.00374005 0)
(-0.00568179 -0.00355711 -8.04779e-24)
(0.00282986 -0.00336529 7.83826e-24)
(0.0109265 -0.00320006 0)
(0.0187722 -0.00308151 0)
(0.0264594 -0.00299486 0)
(0.0340102 -0.00291955 0)
(0.041423 -0.00284608 0)
(0.0486892 -0.00277087 5.01863e-24)
(0.0557992 -0.00269284 -5.13277e-24)
(0.0627446 -0.00261215 0)
(0.0695196 -0.00252914 0)
(0.0761179 -0.00244386 0)
(0.0825334 -0.00235633 0)
(0.088758 -0.00226638 0)
(0.0947831 -0.00217393 0)
(0.100602 -0.00207935 0)
(0.106208 -0.00198305 0)
(0.111596 -0.00188534 0)
(0.116761 -0.00178637 0)
(0.121698 -0.00168619 0)
(0.126402 -0.00158467 0)
(0.130865 -0.00148166 0)
(0.135082 -0.00137677 0)
(0.139042 -0.00126965 -1.61473e-23)
(0.142737 -0.00115951 -1.21471e-25)
(0.146149 -0.00104588 1.67436e-23)
(0.149271 -0.000927255 0)
(0.152071 -0.000803162 0)
(0.154543 -0.000670594 -3.58566e-23)
(0.156633 -0.000529605 -2.60717e-25)
(0.158343 -0.000373701 3.69794e-23)
(0.159559 -0.000205051 0)
(0.160333 -8.59477e-06 -3.85983e-23)
(0.160395 0.000207381 3.89216e-23)
(0.159944 0.000482869 0)
(0.15831 0.000796679 0)
(0.156102 0.00126215 -4.08726e-23)
(0.151548 0.00184762 4.07975e-23)
(0.146316 0.00302717 0)
(0.135458 0.00502937 3.30663e-22)
(0.123706 0.0124189 1.06269e-20)
(0.120672 0.0227567 2.10242e-20)
(0.121664 0.0345413 8.18146e-23)
(0.126047 0.0476964 4.26112e-20)
(0.132859 0.0623133 0)
(0.142794 0.0788283 4.28258e-23)
(0.156474 0.0970385 6.66871e-23)
(0.173581 0.11639 4.53474e-20)
(0.193666 0.136427 4.58245e-20)
(0.216448 0.156757 4.61552e-20)
(0.240008 0.176738 9.22946e-20)
(0.263508 0.197739 -4.62983e-20)
(0.288585 0.221273 4.56215e-20)
(0.31685 0.248676 2.01487e-23)
(0.352027 0.28159 -2.9281e-23)
(0.4039 0.321085 3.14816e-20)
(0.477127 0.35984 -3.66473e-20)
(0.57788 0.389401 3.72491e-25)
(0.702342 0.387915 -3.54488e-25)
(0.835885 0.324699 5.43637e-20)
(0.885777 0.193725 0)
(0.850366 0.0826349 -1.30154e-20)
(0.724629 0.02301 -3.70955e-24)
(0.753072 0.00604178 4.93424e-22)
(0.709388 -0.0242282 0)
(0.663921 -0.0760886 0)
(0.44544 -0.100427 5.11471e-24)
(0.150013 -0.0372426 -3.83945e-24)
(-0.00681733 0.0184962 -1.44916e-24)
(-0.0509939 0.0428371 -4.00649e-25)
(-0.0613929 0.0522174 3.67563e-25)
(-0.0665208 0.0563473 0)
(-0.0696679 0.0576682 0)
(-0.073327 0.0593306 0)
(-0.0764537 0.0607549 0)
(-0.0799534 0.0630216 -8.74388e-24)
(-0.0838004 0.0657945 9.47596e-21)
(-0.0880893 0.0679921 -1.03607e-20)
(-0.0928186 0.0686929 0)
(-0.0977647 0.0671374 0)
(-0.102571 0.0626986 0)
(-0.107256 0.0555254 -2.34809e-23)
(-0.11132 0.0462798 2.23558e-23)
(-0.114437 0.0353467 -5.15286e-23)
(-0.116678 0.0234629 1.16212e-20)
(-0.11877 0.0117159 2.90362e-21)
(-0.121835 0.00264444 2.15865e-23)
(-0.121805 5.29366e-05 0)
(-0.117596 -0.00183943 0)
(-0.111503 -0.00290876 0)
(-0.103658 -0.00371932 0)
(-0.0947882 -0.00427495 0)
(-0.0851089 -0.00467722 0)
(-0.0749499 -0.00493984 0)
(-0.0644912 -0.0050932 0)
(-0.0539344 -0.00514827 0)
(-0.0434226 -0.00512206 0)
(-0.0330912 -0.00502887 1.48373e-23)
(-0.0230399 -0.00488069 5.76948e-25)
(-0.0133601 -0.0046851 5.3192e-25)
(-0.00411771 -0.00445536 -1.46883e-23)
(0.00466359 -0.00421918 7.64666e-24)
(0.013053 -0.00402099 2.07556e-25)
(0.0211905 -0.00388144 -7.83184e-24)
(0.0291536 -0.00377916 0)
(0.0369635 -0.00368923 0)
(0.0446203 -0.00360069 0)
(0.0521168 -0.00350957 0)
(0.0594447 -0.00341478 0)
(0.0665971 -0.00331663 0)
(0.0735684 -0.00321559 0)
(0.0803531 -0.0031117 -1.33329e-24)
(0.0869462 -0.00300489 -1.35699e-24)
(0.0933405 -0.00289486 0)
(0.0995285 -0.00278159 0)
(0.105504 -0.00266557 0)
(0.111262 -0.00254727 -6.13839e-24)
(0.116797 -0.00242706 6.23386e-24)
(0.122104 -0.0023051 1.28956e-23)
(0.127179 -0.00218139 1.15386e-25)
(0.132017 -0.00205574 -2.68923e-23)
(0.136611 -0.00192792 1.36923e-23)
(0.140953 -0.00179738 0)
(0.145035 -0.00166364 1.43983e-23)
(0.148847 -0.00152565 1.48033e-23)
(0.152374 -0.00138277 -2.97574e-23)
(0.155603 -0.00123302 0)
(0.158507 -0.00107577 0)
(0.161076 -0.00090707 -3.17265e-23)
(0.163256 -0.000726979 3.20739e-23)
(0.165048 -0.000526985 0)
(0.16634 -0.000309865 0)
(0.167173 -5.57119e-05 -3.40208e-23)
(0.167291 0.000224726 6.88593e-23)
(0.166864 0.000583483 2.9264e-25)
(0.165261 0.00099208 3.34868e-25)
(0.163019 0.00159678 -3.56927e-23)
(0.158485 0.0023483 7.29253e-23)
(0.153155 0.00381446 1.46401e-22)
(0.142582 0.00617493 -7.3267e-23)
(0.13109 0.013706 1.49496e-24)
(0.127781 0.0241498 -1.89306e-20)
(0.128624 0.0362183 -3.77634e-20)
(0.13302 0.0497412 3.78263e-20)
(0.140033 0.0647858 0)
(0.150304 0.0817176 0)
(0.164389 0.100309 3.8522e-20)
(0.181961 0.120029 0)
(0.20257 0.140431 3.70307e-23)
(0.225878 0.161149 -3.77776e-23)
(0.250092 0.181697 -7.55745e-20)
(0.274487 0.203447 -3.71004e-20)
(0.300675 0.227811 3.63282e-23)
(0.330298 0.25607 0)
(0.36712 0.289553 3.0131e-20)
(0.420348 0.328568 -2.42501e-20)
(0.494438 0.365592 1.35822e-20)
(0.594681 0.391785 0)
(0.716342 0.38603 -1.91688e-20)
(0.844306 0.32111 -4.02682e-20)
(0.894488 0.194678 0)
(0.873901 0.0879879 -2.36517e-24)
(0.773574 0.0278068 -7.39097e-22)
(0.787383 0.00829196 -7.89374e-22)
(0.745 -0.0233423 -3.88758e-21)
(0.707972 -0.0748789 2.2811e-20)
(0.51997 -0.110518 -1.49887e-24)
(0.22613 -0.0623332 -4.74141e-24)
(0.029769 0.00276209 0)
(-0.0378382 0.0357584 5.33757e-21)
(-0.0562424 0.0490213 0)
(-0.0641961 0.0549806 0)
(-0.0686282 0.0572753 3.83159e-21)
(-0.0729973 0.0594954 8.00666e-24)
(-0.0766307 0.0613045 6.45442e-21)
(-0.0804179 0.0638315 0)
(-0.0844456 0.0667894 -8.31629e-21)
(-0.0888535 0.0691144 8.44645e-24)
(-0.0936605 0.0698741 0)
(-0.0986823 0.0683077 -2.01314e-23)
(-0.103574 0.0638063 1.94672e-23)
(-0.108318 0.0565007 -2.07931e-23)
(-0.112434 0.0470609 -1.04046e-20)
(-0.115609 0.0359167 -5.00199e-23)
(-0.117882 0.0238505 -5.24454e-21)
(-0.119826 0.0119946 0)
(-0.122283 0.00275305 0)
(-0.12173 -0.000216173 0)
(-0.117342 -0.0024188 2.15481e-23)
(-0.111088 -0.00368421 -4.29488e-23)
(-0.103127 -0.00464211 2.14686e-23)
(-0.0941461 -0.00529697 -2.39628e-23)
(-0.0843628 -0.00576831 3.56086e-23)
(-0.0740973 -0.00607314 -1.2031e-23)
(-0.063529 -0.00624789 0)
(-0.052854 -0.00630607 -1.34646e-23)
(-0.0422113 -0.006268 1.31131e-23)
(-0.0317326 -0.00615038 -1.3988e-23)
(-0.0215167 -0.00596743 1.36413e-23)
(-0.0116523 -0.00572877 0)
(-0.00220019 -0.00545141 0)
(0.0068206 -0.00517026 0)
(0.0154726 -0.00493769 0)
(0.0238708 -0.0047745 0)
(0.0320786 -0.00465352 0)
(0.0401163 -0.00454602 -8.22567e-24)
(0.0479857 -0.00443961 8.3523e-24)
(0.0556812 -0.00432987 0)
(0.0631959 -0.00421569 0)
(0.0705239 -0.00409749 0)
(0.0776605 -0.00397585 0)
(0.0846008 -0.00385084 1.2442e-24)
(0.0913406 -0.00372228 -1.2634e-24)
(0.0978739 -0.00358976 3.17007e-28)
(0.104194 -0.00345334 0)
(0.110296 -0.00331356 5.53005e-24)
(0.116176 -0.00317096 -5.60646e-24)
(0.121827 -0.00302596 5.79646e-24)
(0.127247 -0.0028787 -5.87247e-24)
(0.132431 -0.00272915 0)
(0.137373 -0.00257704 0)
(0.142067 -0.00242202 0)
(0.146507 -0.00226338 -1.28763e-23)
(0.150682 -0.00210048 1.30276e-23)
(0.154584 -0.00193201 0)
(0.158196 -0.00175709 -2.72551e-23)
(0.161507 -0.00157326 2.75522e-23)
(0.164489 -0.00137967 0)
(0.167131 -0.0011714 -2.87455e-23)
(0.16938 -0.000948395 5.82718e-23)
(0.171232 -0.000700098 -5.92572e-23)
(0.172582 -0.000429655 3.00045e-23)
(0.17346 -0.00011234 3.07259e-23)
(0.173623 0.000239212 -3.09539e-23)
(0.173215 0.000688889 0)
(0.171645 0.00120216 0)
(0.169382 0.00195717 0)
(0.164895 0.00288945 0)
(0.15952 0.00465028 0)
(0.149283 0.00737181 -2.67677e-22)
(0.138146 0.0150153 -1.73743e-20)
(0.134649 0.0255169 6.82101e-23)
(0.135367 0.0378028 3.43879e-20)
(0.139767 0.0516202 -5.86834e-23)
(0.146953 0.0670085 -3.43037e-20)
(0.15751 0.0842582 0)
(0.171928 0.103116 6.64848e-23)
(0.189862 0.123074 3.37665e-20)
(0.210859 0.143696 3.33899e-20)
(0.234529 0.164647 0)
(0.259189 0.18558 2.0864e-22)
(0.28424 0.207852 6.28596e-20)
(0.311273 0.232776 1.61731e-23)
(0.341968 0.261556 -2.7854e-20)
(0.380155 0.295233 -2.48138e-20)
(0.434533 0.333476 -3.57121e-24)
(0.509324 0.368632 3.41451e-24)
(0.608997 0.391623 1.42511e-21)
(0.727915 0.382125 1.56149e-20)
(0.850311 0.316214 3.28625e-20)
(0.899262 0.194443 -6.1555e-24)
(0.88671 0.0920951 7.58386e-24)
(0.803239 0.0320334 5.82326e-22)
(0.811126 0.0104547 6.38189e-22)
(0.770476 -0.0220231 3.22022e-21)
(0.739631 -0.0721112 -1.90557e-20)
(0.581562 -0.115253 -3.60212e-24)
(0.30095 -0.0833638 5.33013e-24)
(0.0742263 -0.0145298 1.35937e-20)
(-0.0198539 0.0270194 -1.00156e-20)
(-0.0486774 0.0446425 0)
(-0.060398 0.0527351 1.31773e-24)
(-0.0664865 0.0561774 -3.54256e-21)
(-0.0717357 0.0590526 0)
(-0.0759637 0.0612961 -5.8954e-21)
(-0.0800796 0.0641033 -6.9402e-24)
(-0.084298 0.0672506 -7.44351e-21)
(-0.088818 0.0697077 0)
(-0.0936938 0.0705465 -1.73613e-23)