# Probe 0 (0.056 0.014 0.063)
# Probe 1 (0.084 0.014 0.063)
#       Probe             0             1
#        Time
       0.0002             (0 0 0)             (0 0 0)
