/*--------------------------------*- C++ -*----------------------------------*\
| =========                 |                                                 |
| \\      /  F ield         | OpenFOAM: The Open Source CFD Toolbox           |
|  \\    /   O peration     | Version:  v1806                                 |
|   \\  /    A nd           | Web:      www.OpenFOAM.com                      |
|    \\/     M anipulation  |                                                 |
\*---------------------------------------------------------------------------*/
FoamFile
{
version     2.0;
format      ascii;
class       volScalarField;
location    "0";
object      nutCoeffs47;
}
// * * * * * * * * * * * * * * * * * * * * * * * * * * * * * * * * * * * * * //
dimensions      [0 0 0 0 0 0 0];

internalField   nonuniform List<scalar> 
1000
(
0.0019005522931540226
0.0018615923696689918
0.001809553006623096
0.0017980301090253564
0.0018113712126214235
0.0018120322233455943
0.0017588323416809948
0.001615194246556847
0.0013808540316645676
0.0011173510330864795
0.0008981879215558278
0.0007484458637028388
0.0006280234626313206
0.0005050642549685983
0.00038505026205119233
0.00027761528376727426
0.00018873231006313437
0.0001205256822711648
7.192110173962361e-05
3.977991956888196e-05
2.011371566325456e-05
9.054611499146016e-06
3.4308565580675016e-06
9.528303035259788e-07
1.2292753493587837e-07
2.1506425245132363e-11
-8.969847708868137e-08
-8.659293848803512e-07
-3.445438578218702e-06
-9.740919437412917e-06
-2.2851468526033937e-05
-4.727996738075722e-05
-8.870892360124943e-05
-0.00015308167971172807
-0.0002449246473927393
-0.00036520212697531656
-0.0005093968560652174
-0.000666667736407766
-0.0008273511906985389
-0.001020262770448198
-0.0012913667164357726
-0.001624945138805454
-0.0019519146535975295
-0.002201819837881748
-0.00235284440061575
-0.0024126501514235275
-0.002396915339410944
-0.0023460715923078177
-0.0023269459224354145
-0.0023276005779865596
0.0017367445569494108
0.001676704276973005
0.0016094831341101074
0.0015657084016572266
0.001545372190481593
0.0015439872768633085
0.0015481483241266286
0.0015262318374845095
0.0014363399382770353
0.0012719072188201587
0.0010720425109740717
0.0008696146407249657
0.0006677326733567214
0.00047920743005677426
0.0003202804089707797
0.0001983244763178574
0.00011313343795850533
5.910307184372399e-05
2.8124376578632153e-05
1.2146879400216467e-05
4.764062234246802e-06
1.708543905519396e-06
5.669720330659074e-07
1.7362660220904753e-07
4.462165294079904e-08
5.756500875610565e-09
-1.4564481499156765e-12
-1.7494085897596984e-08
-2.2014761054367245e-07
-1.2387603459214354e-06
-4.815318946442152e-06
-1.4760536727640218e-05
-3.786481472263164e-05
-8.407585413483252e-05
-0.00016519679741384686
-0.0002917911014179277
-0.00046884545964507343
-0.0006916260299190844
-0.0009424926911733096
-0.0012041359542560054
-0.0014739696460046399
-0.001721580451228473
-0.0019021330710901419
-0.0020064509792121032
-0.0020574300166676927
-0.002068584021404487
-0.0020437224108634062
-0.002003785040911243
-0.001996896474592786
-0.0020211759494697615
0.001497494843194738
0.0014412380170502554
0.0013831252318519194
0.0013167371244307623
0.0012434753587137147
0.0011846205101776438
0.0011557123421197968
0.001150252799940476
0.001128303788654155
0.0010429020565809147
0.0008804111864425819
0.0006572624824440816
0.0004258010558924584
0.0002426270220407184
0.00011994781614352526
4.934125209984225e-05
1.568596226268615e-05
3.303090424872435e-06
2.9596764533491805e-07
2.322267218823851e-10
-3.1250703414129186e-08
-1.0367564831091313e-07
-7.798835594834868e-08
-1.1829134258309595e-08
4.1449915724353207e-10
7.238611591071715e-08
3.9082913411504523e-07
8.605517677115648e-07
1.0519253361801824e-06
6.825208851824483e-07
1.318007663721358e-07
-1.402402986988981e-09
-9.327664699047118e-07
-8.776435865902268e-06
-3.687197998310259e-05
-0.00010515411439844382
-0.00023536282765832564
-0.00044294279007927874
-0.0007199116223220449
-0.0010067762038450385
-0.001243848226526739
-0.001406289872097152
-0.001495963027035353
-0.0015489694911042901
-0.0015969861204275502
-0.0016374981898106525
-0.0016525918920706996
-0.001639401351945855
-0.0016337269847921652
-0.0016580421786574887
0.0011936004088115822
0.0011623758460924168
0.0011391662815356388
0.0010772693877136694
0.0009670404643698692
0.0008463537701254506
0.0007510723745616293
0.0006931549307429515
0.0006500309111980824
0.0005774215264550108
0.00044573687826985557
0.0002675329988925089
0.0001143531928988182
3.208564523297187e-05
3.793090343677327e-06
5.055905742867259e-10
-1.6780255848313263e-06
-1.0394192582837607e-05
-2.3315095842223433e-05
-3.233408721470409e-05
-3.173763177945408e-05
-2.2371636162129573e-05
-1.0410724019634743e-05
-2.3355924582769104e-06
-3.502381738680088e-08
3.8018878593957e-07
5.20108781892194e-06
1.7656631715345177e-05
3.4462455659500674e-05
4.72076867876549e-05
4.8003731099055625e-05
3.55689096037973e-05
1.7087005961309413e-05
3.4972498925013646e-06
4.102687561494893e-09
-2.952653202055998e-06
-3.244241866456351e-05
-0.0001264353895442875
-0.00031092024727397973
-0.0005407059600900402
-0.0007329025711534406
-0.0008616071056954518
-0.0009468091027940514
-0.0010296345190656975
-0.0011294514937870116
-0.0012272345490626326
-0.001286713741577034
-0.0012868577964759297
-0.0012630670481105118
-0.001268036140001276
0.0008508114373648656
0.0008542331799960214
0.0008812436663358786
0.0008539002380024307
0.0007409851193905375
0.0005874001073115339
0.0004458479690956412
0.00034086887447484565
0.0002634821750713429
0.00018882097192075479
0.00010446882519819003
3.022307238570307e-05
1.3472171007179944e-06
-8.034002923190318e-07
-2.2184907581618152e-05
-8.747104403830094e-05
-0.00018818993303542159
-0.00028943510902568176
-0.00034950857076679234
-0.00034247008319760125
-0.0002719032624581362
-0.00016869094122465915
-7.407854384988908e-05
-1.733975146160595e-05
-5.049769006489509e-07
1.1851168924392774e-06
2.3220333470386688e-05
8.921989119714137e-05
0.00019477074177481625
0.0003071987979920054
0.00038178643356789194
0.0003856345116333042
0.0003159081740204696
0.00020220163429053662
9.121548057880959e-05
2.1401415253823932e-05
4.777187303013297e-07
-2.6445487901695358e-06
-4.4294742675354855e-05
-0.0001480874768057141
-0.000270780067214102
-0.00038199973881765327
-0.00048810523599284887
-0.0006119338019068845
-0.0007578016027517178
-0.0008945042080531075
-0.0009711924912211619
-0.0009577496294928005
-0.0009010014859465688
-0.0008784324853145101
0.0005127620291764773
0.0005442990945549129
0.0006166178675886417
0.0006420364675139076
0.0005620461275128811
0.0004131491726788421
0.00026122716637041934
0.00014640084720678363
7.176723401047275e-05
2.5555158142460006e-05
2.8827269268036814e-06
-2.2502938245589527e-07
-2.636781103276749e-05
-0.0001472709338664607
-0.0003945410192807188
-0.0007358044038548717
-0.0010822995019148475
-0.0013234080580010084
-0.0013740705803365397
-0.001213579517783986
-0.000896786703875289
-0.0005309614125742119
-0.00022800001018643832
-5.419976973489937e-05
-1.95391579827124e-06
2.482292001199135e-06
5.859626491688897e-05
0.0002383593091353529
0.0005464230857422523
0.0009133928622340715
0.0012253276029780117
0.0013749510858389862
0.001309812999585911
0.0010549756441314924
0.0007004368183961058
0.0003603441133699331
0.00012345033265920676
1.7167671482380143e-05
1.1467918730636882e-09
-8.499836985334701e-06
-4.896491421814053e-05
-0.00011852974180500253
-0.00021619641677192287
-0.000348626822526759
-0.0005062716436398103
-0.000644655918903326
-0.0007022302878144605
-0.0006537990717913268
-0.0005653349713222247
-0.0005217159379819673
0.0002343956721061767
0.0002742029331244078
0.00036470925278468355
0.00043731778978325995
0.00041326946011003754
0.0003012561270131847
0.00016623813485052504
6.476756419838143e-05
1.3525738942029805e-05
2.1208592341084814e-07
-3.056585733499391e-06
-5.7609252993702875e-05
-0.0002690702841689405
-0.0007036280691982571
-0.0013325815067787203
-0.002035116949954185
-0.0026298689734868506
-0.0029394160704798544
-0.002860497257969248
-0.0024094401615956437
-0.0017206780741722554
-0.0009957880495339525
-0.0004229881632484426
-0.00010142399140519976
-4.063149937298739e-06
3.6887263748711566e-06
9.754725438607725e-05
0.00040985321596395826
0.000964975944324111
0.001663188024702798
0.0023193039074755656
0.002738029433739074
0.0027924198319360127
0.002472329722321055
0.0018840475074529705
0.0012042255026056333
0.000609906494323762
0.000214622548509816
3.699428806302406e-05
6.392977274687273e-07
-1.808963824150322e-06
-2.6673738570752344e-05
-9.445466631950436e-05
-0.00020945130100362023
-0.00034869319046170946
-0.0004543949964320793
-0.0004664962008749724
-0.00038276532532447106
-0.0002844403648054684
-0.00023815586243206713
6.202652956673971e-05
8.84936718490273e-05
0.00015930980883263097
0.0002471980894142187
0.00027782120399381444
0.0002228120221409381
0.0001222946751179402
3.8275087906583903e-05
2.8821415195444506e-06
-4.878050540837842e-07
-3.360039129740169e-05
-0.0002004410126518823
-0.0006100370213209249
-0.0012891752617563803
-0.002156250651404094
-0.0030350742919798192
-0.00370308059778788
-0.003967825844660081
-0.0037407000070226815
-0.0030764279934629955
-0.002158789147918068
-0.0012347366924830457
-0.0005217110607329063
-0.00012579129506611059
-5.342700149524475e-06
3.987597488792021e-06
0.00011316479413067747
0.0004847994364115224
0.0011594475672788665
0.0020336335043800564
0.0028975244793770353
0.003515213745385906
0.00371363934903227
0.0034446447874402833
0.002797291874098423
0.0019589310896642414
0.0011437194838707563
0.0005184733489160034
0.0001557851465788098
2.059293396133578e-05
3.1683290679848555e-08
-6.258579508687088e-06
-5.120954520192569e-05
-0.00014274263138450315
-0.00024481267996687747
-0.0002964371568951209
-0.0002605849848781925
-0.00016778776745933808
-9.32006236411764e-05
-6.39170927406832e-05
2.8229332763141244e-06
8.59794677925952e-06
3.594707826765607e-05
9.643234809294786e-05
0.00015180467781292331
0.00015358042228307215
0.00010009957725835154
3.4974861490073886e-05
2.4760231566026993e-06
-8.91066075288019e-07
-4.3235296990911385e-05
-0.00022634401191051274
-0.0006213333986272049
-0.0012307251822004386
-0.0019748628941441628
-0.0027000743678140607
-0.0032240922374096818
-0.0033980426404779072
-0.003162712245845462
-0.0025753729762216598
-0.00179372970753844
-0.0010206333791314536
-0.0004300868554771098
-0.00010381342467145533
-4.484882866480433e-06
3.1596810655636244e-06
9.175216615721762e-05
0.0003961647078122481
0.0009544708868995928
0.0016885613326039185
0.0024312947967377735
0.0029882043437931202
0.0032085053055649925
0.003037828102590942
0.0025335758531493005
0.0018394323751893835
0.0011313677497921395
0.0005574510197669349
0.0001934156164195668
3.290995600255102e-05
3.281252920150601e-07
-3.88821752336302e-06
-4.043383214166176e-05
-0.00010778498158587604
-0.00016133217042032754
-0.00015859451381294596
-0.00010155819094667955
-3.880972829576617e-05
-9.667512346250904e-06
-3.1412922815199954e-06
-2.7348593453130876e-06
-3.104801220882131e-07
4.887551965779799e-07
1.482992273910183e-05
5.210247910934875e-05
8.332022246726432e-05
7.815163904329397e-05
4.1145330067027305e-05
7.510374731242413e-06
-1.4203347448679613e-10
-1.2687935431773314e-05
-9.571461990237894e-05
-0.0002869965531143766
-0.0005898587753785416
-0.000967258623123707
-0.0013407986412160948
-0.0016157278893755439
-0.0017134985120579329
-0.001601530127072562
-0.0013076380702023336
-0.0009120587422406056
-0.0005189719420647672
-0.00021819573978112914
-5.223028342927819e-05
-2.149809137439816e-06
1.7825118473463577e-06
4.900416596487162e-05
0.000209723459940638
0.000503972281752822
0.000891000608344472
0.0012829372621695268
0.001576890617582545
0.0016924881178327848
0.0016002956171149874
0.0013306338605453955
0.0009604402623568765
0.0005843798119074613
0.0002820933943082584
9.233189716490813e-05
1.1762509099138912e-05
1.562466557516485e-12
-7.678697251238426e-06
-4.097184265255536e-05
-7.773588423195003e-05
-8.369252499911106e-05
-5.3404680499631063e-05
-1.590418691812346e-05
-6.533529231914059e-07
2.0725211122858218e-07
2.400429531138133e-06
-8.307464834431168e-05
-4.752154881214019e-05
-8.63458174795419e-06
-1.2905596895506101e-09
4.393256973933779e-06
2.4510541532117262e-05
4.505720465850147e-05
4.3771044684928675e-05
2.178072042812039e-05
3.2320526647385697e-06
-4.0908405585277975e-09
-5.5689341395350246e-06
-3.2229339808838436e-05
-8.722538191275054e-05
-0.00016728998894988375
-0.00025640210168379027
-0.00033106619830191664
-0.000368875467200252
-0.00035737878841605276
-0.0002994258310895654
-0.00021248815530859608
-0.00012195954971705523
-5.11081004557157e-05
-1.186591032012018e-05
-3.9822182626185413e-07
6.171828806448354e-07
1.3916915160258505e-05
5.7185185695529736e-05
0.00013462715906885296
0.00023415658570686562
0.00033140618312549265
0.0003989056014677087
0.0004166322009457108
0.0003796285851928235
0.00029965460270020756
0.00020034860428079637
0.00010805787905919107
4.217176197981054e-05
8.359314007599634e-06
5.5871726821814306e-08
-2.0836371585424612e-06
-1.7799011667033666e-05
-3.831837317993433e-05
-4.099416958109652e-05
-2.3072921217813575e-05
-4.3634262340865995e-06
2.643913208643534e-10
7.665837625715769e-06
4.40554144417237e-05
7.944726383187785e-05
-0.00039404941980821206
-0.0002927627480097525
-0.00013167140519558285
-2.7704138654316935e-05
-8.599059790340555e-07
6.364274097237706e-07
1.135349245371471e-05
2.9524192975163888e-05
3.6446612326583945e-05
2.611505002533037e-05
1.1374103578615787e-05
3.2208992349843987e-06
5.3719539138275e-07
7.768334815891845e-09
-5.243150560626961e-08
-6.708609221443435e-07
-2.0964816317746944e-06
-3.8497936174820244e-06
-5.122806925913887e-06
-5.299018099514538e-06
-4.31220709410973e-06
-2.6642453963187344e-06
-1.1126737901179988e-06
-2.1674702816635017e-07
-1.2565199710749317e-09
6.914655284386551e-08
7.812800429399623e-07
2.6889749429785254e-06
5.715222252787123e-06
9.071509486818018e-06
1.1567487736063591e-05
1.2177851162892647e-05
1.0580625811298262e-05
7.372831934112831e-06
3.814928214698174e-06
1.1934414097327477e-06
1.0004444534091151e-07
-7.817025928361841e-09
-8.019007698597269e-07
-5.559384298594473e-06
-1.6705259218845167e-05
-2.6316109427321534e-05
-2.257685838881841e-05
-8.828935375293858e-06
-4.4700224025036906e-07
9.061236988563263e-07
2.6395193297651113e-05
0.0001246557422901686
0.0002794410666604541
0.00038281928302662303
-0.0010391663825397909
-0.0008709950396458965
-0.0005381363364132569
-0.00022952206372621627
-5.9724468788009286e-05
-5.205662321731224e-06
1.4855069720510086e-08
6.72915912614608e-06
2.9035298750956393e-05
5.3633210885921566e-05
6.840416382588788e-05
7.676609402318135e-05
8.434462531561491e-05
8.82169707588914e-05
8.654370944308313e-05
7.963485186692335e-05
6.860487343152906e-05
5.509718269434043e-05
4.093094887259907e-05
2.775922936769778e-05
1.6808451265586472e-05
8.734908335201668e-06
3.605615616796011e-06
9.850400774881261e-07
9.417376731644108e-08
-4.5425229247813346e-10
-2.0739434744184259e-07
-1.269640127175372e-06
-3.676352658855543e-06
-7.6256699532151085e-06
-1.3027466529970804e-05
-1.9533774952560965e-05
-2.6587483587197296e-05
-3.348691304966557e-05
-3.9468733428308655e-05
-4.380892993792137e-05
-4.5936086445531806e-05
-4.554051280383245e-05
-4.3454688163931724e-05
-4.1082754689050244e-05
-3.3857240321805124e-05
-1.8544631762504067e-05
-3.908801863302468e-06
-1.0778387017221469e-10
6.0564698729942925e-06
5.947478068872908e-05
0.00022065399899885309
0.000513742962609106
0.0008364618943016223
0.0010138158879625608
-0.0019907424051610837
-0.0017973248579623504
-0.0013207031056452778
-0.000768903745597492
-0.00034369636405602366
-0.00010298384433426361
-1.2918857580146277e-05
-1.6532068642149761e-09
6.406416409573494e-06
4.239905286924497e-05
0.00010900567339117642
0.0001979149773095226
0.0003045966466270464
0.0004144217155949302
0.0005063138697849474
0.0005613350292319415
0.0005672383287327262
0.0005220842769867296
0.0004350030140715319
0.00032380971669712975
0.00021014687346594373
0.0001136039455897872
4.658369792976562e-05
1.1430457241984695e-05
6.18817909510105e-07
-1.723116890193299e-07
-7.1572229701753095e-06
-3.326518536184621e-05
-8.422438468145279e-05
-0.00015695990257306135
-0.0002406085376406217
-0.00031969771846709156
-0.00037846914840240634
-0.00040511111678311984
-0.0003947529610503608
-0.0003504827972084193
-0.0002822051303220997
-0.000203755115382058
-0.00012976138474680242
-6.965494643688532e-05
-2.5542087948682615e-05
-3.024647321035783e-06
6.16445512802958e-08
1.5490251010080274e-05
0.00010479280241966181
0.00033307782278709246
0.0007325921214191806
0.0012552868583569216
0.0017214964247058593
0.0019389164915009332
-0.0030664818284570046
-0.0029153696953938373
-0.002395614312075818
-0.00167452186216869
-0.0009810441877213583
-0.0004547301307947841
-0.0001439663166210005
-1.9839270703712668e-05
-1.1411877335351045e-08
8.96878521814759e-06
7.021176997346373e-05
0.00020614166369958608
0.00041473905908688183
0.0006726946709120561
0.0009324805267650728
0.00113653982139373
0.0012353745322206254
0.0012034226807511818
0.0010476796223081771
0.0008058823799724119
0.0005347192191190992
0.0002919915540560294
0.00011880065689095201
2.7767230039104705e-05
1.1360368630519428e-06
-8.920046255152901e-07
-2.4759448951678383e-05
-0.00010651515298470026
-0.00025888100821078023
-0.0004665302335436995
-0.0006907965115823808
-0.0008819541851400685
-0.0009948321449445297
-0.001002722799751253
-0.0009052049941840987
-0.0007276025142326016
-0.000512524580033376
-0.0003064698035746154
-0.00014570648656902718
-4.578802497002532e-05
-4.497290474726027e-06
1.388096985916174e-07
2.3441584241212136e-05
0.00014588433796149713
0.0004383282540468628
0.0009265313463363383
0.0015705818475190386
0.0022512137867987296
0.00276749611174564
0.002965300001978443
-0.003989858099698854
-0.003938524873715121
-0.003494651532392832
-0.0027531701023856404
-0.0019024226067584184
-0.0011156983941650448
-0.0005180971839346036
-0.0001630372067923157
-2.1587653400885523e-05
-2.1426390371970536e-09
1.3513723214891629e-05
0.00010110893581095649
0.0002979822404898561
0.0005971553728591317
0.0009472170261965129
0.0012664626402074716
0.0014711634734599218
0.0015047410811135748
0.0013577692204793281
0.0010713134819609468
0.0007223739370200001
0.0003968448670125261
0.00016008450815295288
3.5859707883148464e-05
1.1310792018118177e-06
-1.922348022118793e-06
-4.157409036644064e-05
-0.00016913455316445915
-0.0003984309419167456
-0.0006993362109376111
-0.001007311139977326
-0.0012452553074792678
-0.0013498036049268104
-0.001292844355892085
-0.0010908268460226617
-0.0007987586931211229
-0.0004911588867524672
-0.0002367925827264068
-7.565639728886913e-05
-8.522127291056042e-06
4.4417390903144974e-08
2.392507639822104e-05
0.00016000015147904089
0.0004881887832979944
0.001032705008188292
0.0017480754418248475
0.0025282611253058533
0.003226111762605879
0.0036805088617541545
0.0038043018922772234
-0.004507338139909062
-0.004572775132869679
-0.004278162708127834
-0.0036517788734128994
-0.0028087899681881524
-0.0019038472156647575
-0.001093070593631651
-0.0004930175817804883
-0.0001476155389220433
-1.707358251651928e-05
9.37301470775424e-10
1.7705016521243873e-05
0.0001163602577892653
0.0003257312348279835
0.0006205890627189941
0.0009302505640991363
0.001166696289841938
0.001258762358165432
0.0011792599419009353
0.0009546147947298123
0.0006537191540359522
0.00036091495986415235
0.00014414736913318817
3.085956468791138e-05
7.201556075401204e-07
-2.607670761544739e-06
-4.5892824125468694e-05
-0.00017729397444650626
-0.0004051447911457563
-0.0006925704796024976
-0.0009697798832365842
-0.0011592896865788482
-0.0012045158077295937
-0.0010910019813484258
-0.000852211817166141
-0.000557496323971191
-0.00028650197827738183
-9.944288829382457e-05
-1.4192690307167135e-05
-1.6970148413284627e-15
1.6808730961556477e-05
0.0001365414609233623
0.00044606615710439027
0.000978498147924926
0.0016962148621402755
0.00250102646737518
0.0032619530464442054
0.0038499743434049875
0.004170999024542673
0.004198701187541763
-0.004495579223880799
-0.004649296758422103
-0.004503637414333005
-0.004047635789191428
-0.0033336906415478984
-0.002474737886208451
-0.0016144233930098957
-0.00088633407280089
-0.00037688151256179387
-0.00010251316907442822
-9.205969315563801e-06
6.360374157106541e-08
1.989322932337075e-05
0.000108463300787763
0.0002748218884750655
0.0004816640242353493
0.0006653886122132282
0.000765048450647117
0.000748139374095238
0.0006230259378766916
0.00043379378258752026
0.00024069468458189287
9.506111832294023e-05
1.9351680564973356e-05
3.0963685360999234e-07
-2.5311894742837193e-06
-3.709271911915358e-05
-0.00013623885555826847
-0.00030182492893170723
-0.0005017969531971753
-0.0006815341778356614
-0.0007849834909891952
-0.0007771551095440338
-0.000658890151335093
-0.0004675929915114879
-0.0002630090182607197
-0.00010308376523193916
-1.911234824477619e-05
-8.175447131093488e-08
7.604850535551431e-06
8.738595065252563e-05
0.00032253323369422685
0.0007581402034482332
0.0013798954297465594
0.002116275539579486
0.002857770240193475
0.0034869767043568096
0.003912506378498091
0.004095109867187409
0.004042947874847187
-0.00400033824519453
-0.004188616343254746
-0.00413843582646109
-0.0038278535948132885
-0.0032782578409776024
-0.0025666372677319907
-0.0018051858395587885
-0.0011093155198218783
-0.0005672213670734572
-0.00021935843381388568
-5.100386475944476e-05
-2.8782714362277445e-06
3.866325211245563e-07
1.8982484493072806e-05
8.07456647270779e-05
0.00017846818704348512
0.00028044191276302785
0.0003491043870386432
0.0003594066472144421
0.0003094436212594118
0.00021976822591220776
0.00012284190758923518
4.8077361049460214e-05
9.323793481815317e-06
9.682680900011355e-08
-1.7882824884606573e-06
-2.259950915356979e-05
-7.937217976750172e-05
-0.00017075435664550012
-0.00027604492891285693
-0.0003629919485435906
-0.0004012168485790302
-0.0003756144779128125
-0.00029382175656464583
-0.00018402455801363074
-8.325145786709437e-05
-2.0373074028944446e-05
-6.005212885516353e-07
1.845608503414072e-06
3.9561152727288176e-05
0.00017624186212298666
0.0004604247508422761
0.0009030870196326896
0.0014709539512818455
0.00209400646232731
0.0026818705159858403
0.003147151845969189
0.0034304725886326755
0.003517508592160968
0.003424484188331721
-0.0031959427046833787
-0.00336829600996069
-0.003350900310977947
-0.0031287764828955
-0.002720256776383144
-0.0021816544078129166
-0.0015936179285416041
-0.0010400761878510308
-0.0005876721361999313
-0.0002718208035855364
-9.189022380078859e-05
-1.6858094224784798e-05
-3.6385629642162504e-07
9.040928915178263e-07
1.4107889078221855e-05
4.599945467401384e-05
8.69277293615034e-05
0.0001201801505774475
0.00013208126409749744
0.00011864527663014936
8.658885154768029e-05
4.9150447018052533e-05
1.9291068820944575e-05
3.6600974966141223e-06
2.8973605995287177e-08
-8.569354346980898e-07
-1.0067491764643701e-05
-3.4426577045068194e-05
-7.243713478152325e-05
-0.00011414792599961926
-0.00014517513489913908
-0.00015321566879606383
-0.00013412432740553436
-9.458129831028108e-05
-4.965101354097021e-05
-1.569417287893106e-05
-1.265171198770302e-06
1.5645111843941047e-07
1.2122177636673425e-05
7.028843603395245e-05
0.00021105890005585311
0.00045721242077252595
0.0008074246270704048
0.0012336498097941986
0.001685994022425326
0.0021032148869271038
0.00242712715505934
0.0026171864740250792
0.002660155812608893
0.0025649691943519454
)
;

boundaryField
{
    "(inlet|outlet)"
    {
        type            zeroGradient;
    }
        "(front|back)"
        {
            type            empty;
        }
    "(top|hills)"
    {
     	type            zeroGradient;
    }
}

