/*--------------------------------*- C++ -*----------------------------------*\
| =========                 |                                                 |
| \\      /  F ield         | OpenFOAM: The Open Source CFD Toolbox           |
|  \\    /   O peration     | Version:  v1806                                 |
|   \\  /    A nd           | Web:      www.OpenFOAM.com                      |
|    \\/     M anipulation  |                                                 |
\*---------------------------------------------------------------------------*/
FoamFile
{
version     2.0;
format      ascii;
class       volScalarField;
location    "0";
object      nutCoeffs51;
}
// * * * * * * * * * * * * * * * * * * * * * * * * * * * * * * * * * * * * * //
dimensions      [0 0 0 0 0 0 0];

internalField   nonuniform List<scalar> 
1000
(
5.7251414782023484e-05
0.0001680594814518759
0.0006786624713572118
0.0018523333760651704
0.0030022539334329636
0.0032293338633689115
0.0024804166440244952
0.00138285601292289
0.0005531169292208166
0.0001538993945216728
2.576959639522742e-05
1.0698403875060196e-06
-3.384647420527094e-07
-1.3303929718816283e-05
-6.110575623802255e-05
-0.00014968794333026426
-0.00026141616414326955
-0.00036068637223349455
-0.00040997093367144485
-0.00038858151700102016
-0.00030400642266330925
-0.00018898892448023088
-8.515012340672517e-05
-2.1700258078908242e-05
-1.0328497400811334e-06
5.524324081649527e-07
1.7273575013322553e-05
7.233243158454893e-05
0.00016289088604967916
0.0002603004127446646
0.0003254322568443165
0.00033020442316263277
0.000272901393253203
0.00017874404446659514
8.575942796400342e-05
2.430597007418279e-05
1.6790351272107765e-06
-2.2900655640465494e-07
-1.4419094728478207e-05
-8.551693556467914e-05
-0.0003084907231500453
-0.0008446708863162157
-0.00179726619224447
-0.0029340377787515286
-0.0036384793833961933
-0.0033410592950859686
-0.0021206846863628145
-0.000854873617313991
-0.0002581335549795624
-0.0001079067961026685
6.46523425484352e-11
3.85626880415247e-06
0.00012261755976803845
0.0007614030833639327
0.0019248163730029534
0.0028475534292253407
0.002888766532562153
0.002124031809652604
0.0011441844904274314
0.00045061426278031233
0.00012418402335578958
1.8558134918897212e-05
1.1762476785188204e-07
-4.274984038600057e-06
-4.728690402639776e-05
-0.00015499923908169946
-0.0003117949861754123
-0.0004660546540736697
-0.0005560084372419205
-0.0005425500208764996
-0.00043089975155795134
-0.0002684069571269325
-0.00011903560156372657
-2.8641257596470192e-05
-9.876715701457027e-07
1.4542711737785556e-06
3.223813393896558e-05
0.0001260255532953577
0.00027474555196628796
0.0004291606945749288
0.0005251907718429126
0.0005197222261856447
0.0004149939955924279
0.00025744515090594266
0.000111743992501497
2.4893582116403322e-05
4.851923179429966e-07
-3.119618483726726e-06
-5.185566616754197e-05
-0.0002275447975848648
-0.000659550404528306
-0.0014531973556776944
-0.002468262811290225
-0.0031973289742886915
-0.0031046769887311506
-0.002142371538751386
-0.0009187943993905202
-0.00019047018245734032
-1.6098111035955357e-05
-1.2015839016168975e-06
-5.462044387313863e-05
-1.5624057966750654e-05
3.6586353827567713e-07
0.00013178437313241664
0.0007665870797440794
0.001748501734513579
0.0024332144695360367
0.002364877477505441
0.0016704375925721095
0.00086836801945999
0.00032836017307992846
8.067684607304004e-05
6.0910144662456535e-06
-2.634478301062343e-07
-2.6495521812173287e-05
-0.00012944224712543533
-0.00030732676837817697
-0.0005018203950915292
-0.0006312328106358013
-0.0006368674284721667
-0.0005164392559685168
-0.0003252484326464631
-0.00014430275353354233
-3.402288131594971e-05
-1.006144403920225e-06
2.266064936259017e-06
4.451629925031519e-05
0.00016937851325531905
0.0003638725948207464
0.0005611805860322983
0.0006767028277817241
0.000656346860255471
0.0005083495026244485
0.00029950384542852315
0.00011736611361521367
1.9769077457436847e-05
1.4271360320361835e-08
-1.2943413041122776e-05
-0.00012136712661677053
-0.00043292309855417897
-0.0010412281052638998
-0.001870745410382052
-0.002539446217678643
-0.002574928171357059
-0.0018821704055872763
-0.0008835337003850575
-0.00018974941686401977
-4.160953361495978e-06
2.8708730427243247e-06
1.8502838674795e-05
-0.00038442395413105563
-0.00024684529887993636
-4.345609419195719e-05
2.1625591915669675e-07
0.000118150679590929
0.000624664090494305
0.0013524659644279663
0.0018141648648728104
0.0016835430339224315
0.0011184838761963728
0.0005331994799051351
0.00017020058561995752
2.429554310674049e-05
1.5278699708859157e-08
-1.179848892227451e-05
-9.318192922197808e-05
-0.000260967046415811
-0.00046295757827500563
-0.000611920652749985
-0.0006380490733717518
-0.0005298591788247241
-0.00034006385133953835
-0.00015354982505752076
-3.706065694897842e-05
-1.199603362290913e-06
2.1801880690426673e-06
4.5661727562814177e-05
0.00017617422916524778
0.000380174036611273
0.00058608810804815
0.0007034039770874076
0.0006753413399103294
0.0005133223441983004
0.00029190527034356754
0.00010595876179890655
1.4038406620108774e-05
-7.111629529033923e-09
-2.5307860592211626e-05
-0.0001830954524886743
-0.0005696137474419889
-0.0011659011650786905
-0.0017161584524835898
-0.0018340819776099281
-0.0013902673419998186
-0.0006833149093746385
-0.00015736033065352008
-2.516909773956477e-06
1.5566912782971047e-05
0.0001298615030234012
0.000214813370594244
-0.0010107671421402068
-0.0008185171457452309
-0.00038072852857611646
-5.4353490842154586e-05
1.461669227636876e-08
6.956557295959423e-05
0.00039034468412839547
0.0008472311404592294
0.0010908495098729556
0.0009289582524697491
0.0005367273369244999
0.0001997489547274617
3.6123340313228437e-05
3.8481274127504357e-07
-5.3035622912689855e-06
-6.246105614393756e-05
-0.00019654638210733703
-0.0003692473095584668
-0.0005058216939364727
-0.000541468322782605
-0.0004599178403526666
-0.0003021144368804997
-0.00014064496151138797
-3.598966672652077e-05
-1.5288603140640595e-06
1.302446255192338e-06
3.4889364257823026e-05
0.0001419126137116259
0.00031365514724240575
0.0004902824366465121
0.0005936642190414006
0.0005732380622646094
0.00043701497903531853
0.0002483925474675061
8.947910326103078e-05
1.1435127303116699e-05
-1.5020376735893955e-08
-2.4055608369734776e-05
-0.0001673500944603073
-0.0004843727502554385
-0.0008587798249105057
-0.0010207247233433312
-0.0008105587392327926
-0.00039640550143471337
-8.545666007106895e-05
-5.783843080071963e-07
2.4380974111179174e-05
0.00022648139384554182
0.0005153617745662991
0.000641383825921687
-0.0016441215936174277
-0.0014884078458609043
-0.001015601189256364
-0.0004246020834689848
-7.333360306099224e-05
-2.1919359593298205e-07
2.1127999020262853e-05
0.0001669901377433172
0.0003754016851415041
0.00044193701774221573
0.0003105245932777803
0.00012697902257673144
2.385329678183844e-05
2.861798051804315e-07
-3.2673933318358304e-06
-4.0229763776563734e-05
-0.00012906133965447068
-0.0002461398259687732
-0.0003420534378250833
-0.00037184138310642986
-0.00032167188178965523
-0.00021653292189141723
-0.00010475580085649503
-2.9037328667073287e-05
-1.7400444964135184e-06
4.4440578424647346e-07
1.9290813946166374e-05
8.603901346208314e-05
0.00019869902381990497
0.00031997212329585906
0.00039745982469959346
0.00039413173006677313
0.00031059353642867645
0.00018550837604906702
7.339897304857526e-05
1.2363918627682947e-05
6.669476138837873e-09
-8.806222997529793e-06
-7.903966248667908e-05
-0.00023017903475533704
-0.00035316940147090146
-0.0003141860692052917
-0.000148392342980377
-2.2638431725934966e-05
9.854553109446655e-09
4.158672986645446e-05
0.0002733259804371197
0.0006761221407251058
0.0009925957862707657
0.001087536140903555
-0.0019046192968216328
-0.0018400967439873067
-0.001565836844552895
-0.0010319307051259226
-0.00046430037277839594
-0.00011387664073950615
-5.7218803490923156e-06
1.164831491759619e-06
3.383977650767438e-05
8.296793443233975e-05
7.958726704021291e-05
3.493153934637413e-05
5.564709785753232e-06
5.573865116228395e-09
-2.659451141477318e-06
-2.2451631395685138e-05
-6.588711006415086e-05
-0.00012202784949054075
-0.00016851319408079247
-0.00018434452236657222
-0.00016207251810273783
-0.00011217399162333313
-5.693633714221215e-05
-1.7445726838237854e-05
-1.5234661904128935e-06
5.4692847200634695e-08
6.738771429734757e-06
3.4973336923173015e-05
8.671593493895468e-05
0.0001468158832549301
0.00019094037152597875
0.00019931028797261633
0.0001680195269716184
0.00011126311696540831
5.3244589040208625e-05
1.4556907163309052e-05
8.04938664232886e-07
-3.17139242623436e-07
-1.1566580463519453e-05
-4.0146544648851144e-05
-4.893337199384629e-05
-2.1112020008636668e-05
-6.805410011464945e-07
4.2188412054891815e-06
8.040860770127478e-05
0.0003253736758391933
0.0007188012584179043
0.0010779166759066004
0.0012440590310492865
0.00126616231904558
-0.0016321362070074409
-0.0016442312072809443
-0.0016336507248248513
-0.0014205139706741229
-0.0009765377400655337
-0.0004987802781416288
-0.00016862716905589062
-2.7231869734845993e-05
-4.5892296127242647e-07
4.574087869854479e-07
2.605479871506331e-06
1.440374567939416e-06
9.262073742192983e-08
-3.942789638170108e-08
-1.5581079846249129e-06
-7.355783206137546e-06
-1.834064267610269e-05
-3.220516262269384e-05
-4.408713464303346e-05
-4.896915157965771e-05
-4.449186331862475e-05
-3.2447639070027606e-05
-1.7919870740152967e-05
-6.456028459470859e-06
-9.28740915169606e-07
-6.123965904435629e-12
8.418058957680678e-07
6.289391243348079e-06
1.8103800032783507e-05
3.378314704417705e-05
4.779492535107471e-05
5.4583220401929206e-05
5.1532528656338616e-05
4.020340640678788e-05
2.5275521610240685e-05
1.198914769737551e-05
3.6313080916047943e-06
3.9468479178042413e-07
-3.496058340352361e-11
-8.775147034841522e-08
-4.6090342413900294e-10
1.5576098812060487e-06
2.81859712835313e-05
0.00013984397466348074
0.00038058071870662307
0.0007137513994049878
0.0010076418622802091
0.0011261056243669005
0.0010999407285075542
0.0010653132252703864
-0.0010113469816496136
-0.0010487684049898616
-0.0011854040233360648
-0.0012702619857073397
-0.0011396055605958396
-0.0008249926602910718
-0.00046990990495353763
-0.000199743428289331
-5.841038066119366e-05
-1.1012613425555674e-05
-1.4874978244776943e-06
-2.676098138124967e-07
-1.0207044719353935e-07
-7.4202953594762e-08
-1.0166523396146584e-07
-1.9930818887528144e-07
-4.130351349929223e-07
-7.751014681879023e-07
-1.2473553851485467e-06
-1.6955762881452783e-06
-1.9358388217395867e-06
-1.8385564322400159e-06
-1.4200170883140384e-06
-8.482776269863449e-07
-3.4893500971744225e-07
-7.054797532840938e-08
-8.600830492668173e-10
1.1846742943971637e-08
1.529577169541263e-07
5.268386969587021e-07
1.1056426985160999e-06
1.762114894585672e-06
2.3507839050461103e-06
2.781079145150248e-06
3.0462668819681527e-06
3.2092478508775925e-06
3.3705368312321248e-06
3.6449041149698205e-06
4.298583785273687e-06
7.317518902185167e-06
2.091605103711191e-05
6.791298945421962e-05
0.00018427858879812962
0.000385458764535174
0.0006322212837679391
0.0008338903099414147
0.0008941788962087314
0.0008014623748458309
0.0006793847976659137
0.0006327028292726878
-0.0004075853110990963
-0.0004325497369206143
-0.0005605759650526552
-0.0007323118259852399
-0.0008122434001676835
-0.000738570860213648
-0.0005501963896333246
-0.00033170970947425974
-0.00015717189630369416
-5.693975269959635e-05
-1.5420521325693797e-05
-2.7164879739893053e-06
-1.1170745594670366e-07
2.37888456191673e-08
7.169176613675841e-07
2.3595376891971036e-06
4.069444283325698e-06
4.9055378305619006e-06
4.529632236913515e-06
3.266234785322369e-06
1.7759871521764357e-06
6.423514187701119e-07
1.0111298617124345e-07
9.693542231325945e-11
-5.1875332717453383e-08
-4.5469290964590695e-07
-1.41463596242636e-06
-2.8415143299551495e-06
-4.370090666100331e-06
-5.492435272277634e-06
-5.760576127606083e-06
-4.9965602292313545e-06
-3.427211466114192e-06
-1.6545083109263685e-06
-3.96582778253407e-07
-4.78619614293375e-09
1.2907793182593765e-07
2.053245425846906e-06
9.317907933425822e-06
2.7714514799660257e-05
7.035779393416558e-05
0.00015542866833787443
0.00028739409503179993
0.0004389352576649683
0.0005564004606911511
0.0005838400341397539
0.000501941776544493
0.000362696229153734
0.00026185510877280876
0.00023382383850961838
-7.536393731443346e-05
-8.24332579332437e-05
-0.0001342933513504064
-0.00023143843321337635
-0.00032461991976650797
-0.00035990713706882376
-0.00032186354183259206
-0.0002326862411369124
-0.00013100405266180164
-5.267022436904629e-05
-1.2193642885783818e-05
-5.922578866468016e-07
1.7604010342022166e-07
5.8382775801847735e-06
2.2509918380019298e-05
4.6567064132322225e-05
6.912393772356494e-05
8.151135256042253e-05
7.944270959128714e-05
6.449003999867187e-05
4.2768876006872606e-05
2.1840620262831427e-05
7.377772791432239e-06
9.945172566940326e-07
-2.097178856297559e-15
-1.0048177103873805e-06
-7.4561895106783134e-06
-2.2196422290398805e-05
-4.393074494106932e-05
-6.740421922603108e-05
-8.529984301519236e-05
-9.119760675570114e-05
-8.243923344555523e-05
-6.164334514684451e-05
-3.599104225745664e-05
-1.4241580843378222e-05
-2.436682882754662e-06
-1.1634493010178043e-09
1.8729566480902338e-06
1.671023549817107e-05
5.490311834072898e-05
0.00011789679106437405
0.00019118636661221195
0.00024824100584090183
0.0002634716684912509
0.00022517567785376182
0.0001496719560193221
7.807256456320269e-05
4.156451580792949e-05
3.407063239671385e-05
-5.767382462634112e-07
-7.788475650875959e-07
-4.4683123603814215e-06
-1.9523015953213962e-05
-4.5965102057355044e-05
-6.90760839887436e-05
-7.467164755857412e-05
-6.001394890821833e-05
-3.3361744770738504e-05
-9.892382566652658e-06
-4.687570953008324e-07
4.656620195781395e-07
1.2610760256419623e-05
5.1028250464528505e-05
0.00011379541850099775
0.00018494454543349422
0.0002425054520915379
0.0002680548847739549
0.00025399773551787474
0.00020601149615845138
0.0001401238670785884
7.59809671276145e-05
2.9173004577025154e-05
5.622713512689461e-06
6.174285452561297e-08
-1.022110699586583e-06
-1.3242402133166442e-05
-4.7378280792702626e-05
-0.00010430376974144767
-0.00017377337796947585
-0.00023766618447965438
-0.00027663506306648065
-0.0002776854662106635
-0.00023967098383271003
-0.0001742718553856471
-0.00010171442121900507
-4.26566481028242e-05
-9.415566744677065e-06
-2.1756186070911483e-07
6.327327329069082e-07
9.253560988154528e-06
2.7976068714997564e-05
4.713637299149993e-05
5.552702082134135e-05
4.824702720750887e-05
2.9194514687686322e-05
1.0262047336996042e-05
1.395258742864122e-06
4.1593610388295894e-08
4.131173694016583e-09
1.3839410136590613e-05
1.2960686955781831e-05
5.196070703825516e-06
5.1118504338284e-07
-3.2420409064828357e-10
-3.2113475932056176e-07
-9.619727305314736e-07
-8.675046520037671e-07
-1.673182953856826e-07
1.3910434345363344e-08
2.593264912659119e-06
2.0224325287222195e-05
6.78030819253411e-05
0.00014583669660221985
0.00024045048115283065
0.00032925662258930503
0.00038881803919570845
0.00040282519228058457
0.0003676776541892055
0.00029354873692349686
0.0002006615556004239
0.00011220799168720346
4.647825202880652e-05
1.0962777535232359e-05
4.346162976042732e-07
-4.0025834009573285e-07
-1.066087959416821e-05
-4.5654645851144226e-05
-0.0001105400706333541
-0.00019759150577938975
-0.000288178936259141
-0.00035892944627481486
-0.0003899478033811379
-0.00037208092167510565
-0.00031040259895576204
-0.0002224540161396258
-0.0001318247454233066
-5.955763993173461e-05
-1.711887406033786e-05
-2.073719599237488e-06
-8.346652877508604e-09
1.48590692766219e-07
6.903091892007149e-07
6.772963450696195e-07
1.6011613886378924e-07
-9.73065439985617e-10
-9.592330240617381e-07
-7.313251245870494e-06
-1.7824775495956253e-05
-2.111085314840199e-05
0.00013823044216103458
0.000135100620545736
9.9525611486089e-05
5.760136595574873e-05
2.9430875350718882e-05
1.4853585122006287e-05
8.484845831322587e-06
6.5598131881684726e-06
8.013065597884005e-06
1.4765641919009247e-05
3.234974575721972e-05
6.753814588847691e-05
0.00011965830652934027
0.00017988624378525458
0.00023716995151375884
0.00027984301682027005
0.00029850614540562713
0.00028872871745684874
0.00025240882824428064
0.00019734395336649585
0.00013510720822015556
7.782404889178944e-05
3.479136999662541e-05
9.937516877361616e-06
8.9352595563122e-07
-1.658743314660431e-08
-3.1256830891941327e-06
-1.788337822147895e-05
-4.951165618666398e-05
-9.694246584150833e-05
-0.0001527782767601808
-0.00020538743542226667
-0.0002425124794935499
-0.00025519120580198704
-0.00024062164519365604
-0.00020294250859619026
-0.00015167927418717527
-9.849480709025106e-05
-5.371518219469809e-05
-2.4480687215439637e-05
-1.0466823747127074e-05
-5.365622474379479e-06
-4.390993318513376e-06
-6.094991019892238e-06
-1.1769747860998856e-05
-2.5374639285897715e-05
-5.2698857962430954e-05
-9.501646013274114e-05
-0.0001346068198352649
-0.00014559607066249957
0.00038280951429431315
0.00037369250092239873
0.00031332489401169835
0.0002326522755744339
0.00016184382697623687
0.00011005666725227626
7.618438004761502e-05
5.658697831916055e-05
4.810299855618297e-05
4.8559127759615896e-05
5.6061211505489545e-05
6.684184716700635e-05
7.566878515143456e-05
8.074924540787246e-05
8.17730441140112e-05
7.862655054914462e-05
7.169053249399051e-05
6.176624333576508e-05
4.9956700217267335e-05
3.751986741101606e-05
2.5708085866131725e-05
1.5602143079914155e-05
7.953567699554126e-06
3.054641091680299e-06
6.641951096458809e-07
2.0079228517823088e-08
-3.872915350374866e-08
-8.398804558762305e-07
-3.568488335148786e-06
-8.949626354213167e-06
-1.7012721404352067e-05
-2.7022351350906373e-05
-3.761703348579893e-05
-4.7133714250390085e-05
-5.4026614308566094e-05
-5.725006577828048e-05
-5.648812426415335e-05
-5.216727414948386e-05
-4.498902997182924e-05
-3.655004253787159e-05
-3.0801461166768644e-05
-3.0483903681505135e-05
-3.716067205590879e-05
-5.3231699966317315e-05
-8.249014953516316e-05
-0.00012941284611190653
-0.00019620271907326112
-0.00027570984935870426
-0.0003414604126799567
-0.00036360377406657586
0.0006283106387174597
0.0006053114494911704
0.0005273903725560435
0.0004211117135015813
0.00031371293897623136
0.00022023828896885765
0.00014716404116723873
9.52388126949573e-05
6.118702383802152e-05
3.962412928071838e-05
2.5244150845968028e-05
1.440674646927538e-05
6.641657972641324e-06
2.361252656453108e-06
5.689084548330495e-07
6.074139251932221e-08
7.893855456306394e-11
-9.264339737073062e-09
-4.677905231962185e-08
-6.863179548146404e-08
-4.873513989761806e-08
-1.4071683917489676e-08
-1.7509358958700524e-10
4.917178209453998e-09
7.089024294582502e-08
2.7812813197891043e-07
6.476349047789653e-07
1.0992498118106632e-06
1.4716347289470684e-06
1.5991103573525676e-06
1.4050494561311575e-06
9.58073019668469e-07
4.518823450018986e-07
1.0326115456040034e-07
9.71533683849477e-10
-3.6641870040245106e-08
-5.339417416440121e-07
-2.318085201965643e-06
-6.213917648303643e-06
-1.226150392813229e-05
-2.101110627930968e-05
-3.5364967431676986e-05
-6.006386753808754e-05
-0.00010075148241552407
-0.00016198586970275948
-0.0002448509372953241
-0.00034470311998370165
-0.0004485647191854703
-0.000532255428278119
-0.0005702994642311962
0.0007493852596562891
0.0007077788536676681
0.0006162774055883541
0.0004940902889723767
0.0003618467961197736
0.00023846004581624564
0.0001383598910718775
6.824145026145204e-05
2.6527191910190425e-05
6.571387289777735e-06
4.1386342775521057e-07
-7.814981687328359e-08
-4.1330823101652975e-06
-1.9327689454022305e-05
-4.6669639870886464e-05
-8.025678181085766e-05
-0.00010999213201691311
-0.00012603843893453526
-0.000123045012531733
-0.00010232417261982423
-7.110755258902446e-05
-3.9330187753691607e-05
-1.5445514523202844e-05
-3.1031012533296358e-06
-4.541694149938411e-08
4.415582640832996e-07
6.2613944579634005e-06
2.285258923720252e-05
5.064585615079097e-05
8.46176828604613e-05
0.00011606514377397079
0.00013586863670711467
0.00013795309002322836
0.00012161282542293713
9.180379032577457e-05
5.72902398466734e-05
2.733974694800571e-05
8.21225327748824e-06
7.88569333637034e-07
-5.569833436172037e-09
-1.9630316690258e-06
-1.2621201430865826e-05
-3.9950242733525075e-05
-9.16361711245754e-05
-0.00017168239110624474
-0.0002767493077746198
-0.00039562393361045745
-0.0005119537726909219
-0.0006073232854365779
-0.0006630895114929692
0.0007066644511124184
0.0006512403917245773
0.0005533244889456677
0.0004273001041922969
0.0002911553479802214
0.00016717987492294862
7.445611573491249e-05
2.116437943393133e-05
1.8484245282429314e-06
-5.474444165502246e-08
-8.371594579241096e-06
-5.046222490288701e-05
-0.00014826286369304132
-0.000302224582499377
-0.0004884360316425695
-0.0006658967931708745
-0.0007892960428349827
-0.0008247179303518527
-0.0007618467254110597
-0.0006178574243494222
-0.00043140806017171867
-0.00024902313528206904
-0.00010905367843288454
-2.920381664258977e-05
-2.0418523832553555e-06
1.9458760629334055e-07
1.3633989845417705e-05
6.823936338158193e-05
0.00017600141997393208
0.0003259707456018945
0.0004876977435021495
0.0006216674849458234
0.0006928768679139159
0.0006827128723825009
0.000594967169573955
0.0004540275000140404
0.0002961375099327876
0.0001570795996132143
6.122221309066105e-05
1.3871022280327382e-05
6.25088896703658e-07
-3.044872266899225e-07
-1.0019329894034258e-05
-4.525535832590299e-05
-0.00011441411740289016
-0.00021427791385479985
-0.00033109381713932406
-0.0004467275179685914
-0.0005455526022723122
-0.0006133792521234681
0.0005496289751123874
0.0004923695244712838
0.00040097038591396935
0.000288778975444399
0.00017441354243408116
8.016177132731596e-05
2.2206283973740777e-05
1.4263284732667771e-06
-3.3859163912044187e-07
-1.7734957613506914e-05
-9.417274298655424e-05
-0.00026874917457159447
-0.0005564815126077331
-0.0009317632826675277
-0.0013326468188225055
-0.001676242573409119
-0.001882219224502349
-0.0018982632241721746
-0.0017177633751484134
-0.0013830211387439622
-0.0009724465237156187
-0.0005759841053696923
-0.0002672554591008525
-8.191394995026744e-05
-9.33825660834808e-06
6.2927984675695875e-09
1.4555402048468621e-05
9.610008345239277e-05
0.0002774004859614564
0.0005503289059635268
0.000868200114179111
0.0011611685723432212
0.0013591574209768293
0.0014144316042743836
0.0013161871968095434
0.001092575334518934
0.000800094475107326
0.0005047196229341485
0.00026219647632922804
0.00010301615831438804
2.4674672649666813e-05
1.4714753008816258e-06
-1.9330653532464306e-07
-1.0467386523400902e-05
-4.8420983825372576e-05
-0.0001182815586937776
-0.00021075588220654008
-0.0003095521930858303
-0.00039943795361615934
-0.0004674729226329836
0.0003609078388279993
0.00031320241190907044
0.00024069437469025775
0.0001569199049916197
7.971294418682218e-05
2.593810723500965e-05
2.6847632056104926e-06
-4.9144768382527345e-08
-1.1489896419319934e-05
-7.51033479913877e-05
-0.00023627360716638033
-0.0005246862053641058
-0.0009368281723397412
-0.0014278267942742363
-0.0019178945599020898
-0.0023106393895435656
-0.0025193851262457793
-0.002493241355152108
-0.00223377928797311
-0.0017961467782383212
-0.0012737358435462116
-0.0007711470737320016
-0.000374158730258659
-0.0001263078549186552
-1.932498487492264e-05
-2.3920101810817313e-08
9.03963982668181e-06
8.208618042459992e-05
0.00026470411330719966
0.0005585534040207374
0.0009208062303448033
0.0012781351116386316
0.0015502788609060418
0.0016751688769575755
0.0016273090222367816
0.0014237278070252973
0.00111634399954685
0.0007743223437605748
0.00046320368244741724
0.0002279182976645184
8.362664151746232e-05
1.7686519105421053e-05
6.64527691880648e-07
-4.5203220806904475e-07
-1.1629355950632078e-05
-4.5946832660502936e-05
-0.00010300722169083737
-0.00017288655658623858
-0.000242302506142127
-0.0002988216016071979
)
;

boundaryField
{
    "(inlet|outlet)"
    {
        type            zeroGradient;
    }
        "(front|back)"
        {
            type            empty;
        }
    "(top|hills)"
    {
     	type            zeroGradient;
    }
}

