/*--------------------------------*- C++ -*----------------------------------*\
| =========                 |                                                 |
| \\      /  F ield         | OpenFOAM: The Open Source CFD Toolbox           |
|  \\    /   O peration     | Version:  v1806                                 |
|   \\  /    A nd           | Web:      www.OpenFOAM.com                      |
|    \\/     M anipulation  |                                                 |
\*---------------------------------------------------------------------------*/
FoamFile
{
version     2.0;
format      ascii;
class       volScalarField;
location    "0";
object      nutCoeffs15;
}
// * * * * * * * * * * * * * * * * * * * * * * * * * * * * * * * * * * * * * //
dimensions      [0 0 0 0 0 0 0];

internalField   nonuniform List<scalar> 
1000
(
0.06599926495154858
0.07378455649812457
0.07727079617314682
0.07706512618449517
0.07537199091924529
0.07278105880032881
0.0688369683384252
0.06324183819265039
0.056816128775223615
0.051418009792041884
0.04883580671674334
0.05005701348415572
0.053782481484578204
0.05786403098312738
0.061774031575133385
0.06548121239348602
0.06896349842680188
0.07220584386535102
0.07519661672072613
0.07792346089408672
0.08036964760827725
0.08251173752067419
0.08431937466550446
0.0857576995246092
0.0867916545183201
0.08739136351390424
0.08753751996834308
0.08722492386070699
0.08646389701888219
0.08527873421722414
0.0837040575194221
0.08177968088762423
0.0795458131436949
0.07703914898405838
0.07429086556726736
0.0713266493391794
0.06816803553214269
0.06483458456274332
0.06179992703592028
0.061011376579247704
0.06362264922546147
0.06892133322108046
0.0757864469077523
0.08293811666311764
0.08959738272316402
0.09568798366394862
0.10098709900735811
0.10385083545249361
0.10098068344329644
0.09190196402513386
0.07194242606233076
0.08043056635369024
0.08475946673035599
0.08534676628282209
0.08450381871487511
0.08314646866314322
0.08098146387443866
0.07754236361962996
0.07316810695552585
0.06929107888424509
0.06776222550299875
0.06998269888449753
0.07483834278028385
0.08007642741104395
0.08512666484268398
0.08994563289867963
0.09449517941835062
0.09874092657039202
0.10264999430386483
0.10618858655583312
0.10932014742923843
0.112004902023676
0.1142007764406684
0.11586670160538026
0.11696670952271324
0.11747468727885936
0.11737837110068251
0.1166815322489024
0.11540398539267017
0.11357921129621545
0.11125053399629187
0.10846640847903469
0.10527645895996623
0.10172846080578231
0.09786708102748772
0.09373400596172003
0.08936870813857287
0.08480931499853117
0.08059697201645982
0.07890423447215227
0.08095568206788546
0.08582232320776967
0.09215999986781415
0.09859283722207714
0.10435777560634457
0.10936525490938985
0.11328845138977343
0.11446161775949912
0.10997762170721734
0.09979475160014781
0.07759734696259576
0.08683401385070666
0.09223974659913779
0.09389746056773915
0.09396432250065834
0.09358633260171095
0.09276653903617912
0.09118181313052011
0.08901266878401644
0.08728798965738423
0.08757517632675615
0.09130541328374986
0.097545436668026
0.104132336284545
0.110490892217636
0.11655263371654186
0.12225302191385151
0.12753224232879098
0.1323353672499521
0.1366119917348911
0.1403159271999031
0.14340548558125174
0.14584431021214536
0.1476033522567518
0.14866316873995733
0.1490159159023555
0.14866657546678155
0.14763266374599063
0.145942416909044
0.1436318320216538
0.14074128155623913
0.13731242011160175
0.13338647254560532
0.12900379274495782
0.12420462612376862
0.11903093429263509
0.11352776377036053
0.10774397375781894
0.10227203505556742
0.09946624282552477
0.10061412987881305
0.10462400500917145
0.11001216710029613
0.11534852363855827
0.11983899086538684
0.12331378005071389
0.12535569125805104
0.12441355923523856
0.11814041422864537
0.10691384047417928
0.0825671245216002
0.09257253183743211
0.0992788649701913
0.10238232989635244
0.10366721742438043
0.1043270728066137
0.10461269287305808
0.10445981878078957
0.10415842095674159
0.10456644107424147
0.10691601463828694
0.11239763582594219
0.12014519458240921
0.12816472206580695
0.13589703549214277
0.1432423065520588
0.1501063201516863
0.15640419793822322
0.16206299262534488
0.16702302090151117
0.17123847021573788
0.1746772004349535
0.17732025413470118
0.17916145473314687
0.18020653642102186
0.18047171492961178
0.17998154541057754
0.17876608402444885
0.1768575015483486
0.17428702634803284
0.17108274007626648
0.1672687997415355
0.16286671533764896
0.15789785653351615
0.15238703631219666
0.14636625187154645
0.13987741298504316
0.13297329460398347
0.1262680973119092
0.12220222664452342
0.12211874030482424
0.1248711001901307
0.12890780108333735
0.13273604316391946
0.13548570393830012
0.13690297867163126
0.13656165981943236
0.13317172696578541
0.12504798943583498
0.11291471960416116
0.08648767546150557
0.0972350382489536
0.10538718560396877
0.11028559243342584
0.11320926992548373
0.11522314821724629
0.11669578238789045
0.11777665019583163
0.11895727570657423
0.12113637855169426
0.12535273408629036
0.13250404644802158
0.1416842984729153
0.1510523121609708
0.1600703463414519
0.16861007783180468
0.17655205397253637
0.18379182655134294
0.1902446307067928
0.19584778005783657
0.200561313830167
0.2043669167751695
0.20726562711555452
0.20927462679696054
0.2104231307149117
0.21074782689363503
0.2102877704358116
0.2090796044013023
0.20715356981128
0.2045308710883506
0.2012234026900157
0.19723522208692193
0.19256660469134979
0.18721925135463705
0.18120150371022917
0.17453381178071106
0.167251811310074
0.15940793720936458
0.15160500544438912
0.14625455584333893
0.14472558955516565
0.14589678303277848
0.1481807781364019
0.15002184672917704
0.15049818504148046
0.14934044742626587
0.14622183572249414
0.1402196634599528
0.13032145587636038
0.11748467310947677
0.08908897319146535
0.10049239794192724
0.1101105009109039
0.11702487252063465
0.12197214652510448
0.12576331189149428
0.12875171648205447
0.13118818672134094
0.13371483121217095
0.13734661547546992
0.1430830222721234
0.15161970850432632
0.16198652957702261
0.17246296083826423
0.18253645676422142
0.19206088462176407
0.20090177383412794
0.20894398830634595
0.21609734221816793
0.22229959229278184
0.22751678340668596
0.23174142646675666
0.2349884599044357
0.23729009684149263
0.2386891572209686
0.23923232221389765
0.23896339125294488
0.23791770429003659
0.23611844770202128
0.23357527048515297
0.23028586271383883
0.22623947819375093
0.22142269552660876
0.21582553595377796
0.20944741190970068
0.2023020394801662
0.1944203628236133
0.18585189584554276
0.177156473829516
0.17059682354148853
0.16749497873237323
0.1667807282551357
0.16686188598989463
0.16618692819366193
0.16388344721277853
0.15976601463234522
0.153689850770851
0.14513045978662806
0.13367139433049083
0.12037595038353864
0.09023951740253378
0.10215302116813338
0.11311210543668683
0.12206801478536665
0.12926518931006575
0.13520160116139987
0.14011588107130502
0.1442459150446687
0.14827019414681095
0.1532719699747162
0.16027393404584234
0.16987682159787618
0.18110264356587438
0.1923625813878377
0.20318188391294534
0.21341169591534573
0.22291588677778992
0.23157888725320985
0.23931110781753026
0.24605200725336346
0.25177006288315124
0.25646066850427074
0.2601412910081761
0.2628454301321767
0.26461523347234467
0.26549393193690635
0.26551917428538274
0.2647179017478557
0.2631037608945328
0.2606774332647701
0.2574293599860904
0.25334442338771285
0.24840784884818917
0.24261054476598728
0.23595367974778897
0.22845172214905438
0.22013412489211465
0.2110454720174295
0.20167243024977716
0.19400135698270968
0.18919945399978413
0.1862600592084494
0.18366651445716878
0.18001033855034554
0.17459709418462815
0.16739758617497588
0.1584681933314969
0.14763407523214836
0.1349380072204936
0.12143840540392153
0.08996146567548047
0.10218933221622659
0.11423043326431646
0.12503628117834062
0.1344726314328116
0.1427336342425395
0.14989304018634936
0.15609077279792102
0.16192128018769855
0.1684221099168205
0.17660382750468798
0.18702361771484416
0.1987878466188841
0.21049974619622785
0.2217446039824389
0.23238659056630692
0.24230183827037652
0.25138448451847323
0.2595512483471415
0.26674349757754423
0.272927182353417
0.27809077554645684
0.28224116870296123
0.285398418939461
0.2875893349270956
0.28884136276067546
0.28917736129743504
0.2886120774633028
0.28715111223358686
0.2847921746975374
0.2815283842038176
0.27735226498463683
0.2722601703518841
0.2662553909901387
0.25934986936470705
0.251564899145801
0.24293066493678847
0.23348581095671603
0.2236150938118709
0.21490003770410918
0.20824817203105533
0.20276600764978536
0.19714928539435483
0.19028964610035828
0.18175956759772435
0.17169347644321514
0.16030215315676422
0.14765799380801756
0.13410915218664943
0.12063811373705405
0.0884055727700573
0.10072155482136753
0.1134922974044879
0.12577040972964115
0.13718112891418333
0.14767800741885462
0.1571733067159439
0.16567040155415966
0.17358889788945592
0.1817925507524075
0.19118233960293102
0.202256531511056
0.21428985503179188
0.2261610552613586
0.2375413787222227
0.24832179535635857
0.25840268547283396
0.2676972023078723
0.27613325425437707
0.2836542215411985
0.2902187880622832
0.29579980751798324
0.3003821120031862
0.3039598916963831
0.30653337883960297
0.3081058449262312
0.308681101865065
0.3082621807782239
0.30685136003189556
0.3044514830785586
0.3010681097750889
0.2967114254023388
0.2913976787956321
0.2851493476297867
0.27799378027562904
0.2699616620029179
0.26108505918895647
0.25139688645995883
0.24116029347146148
0.2314546266966354
0.22286954496820333
0.21471506302373536
0.20604265468833438
0.19614604713628292
0.1848735341683305
0.17246944787311344
0.15921568345494438
0.1453189541314988
0.13130357388381503
0.11805009295093087
0.08578953316765262
0.09795985677573972
0.11107068704879056
0.12433107095822937
0.13724904344919797
0.1496240083779785
0.16125071513036984
0.17200559963130502
0.1820953687784445
0.1921133461681384
0.2027386007061555
0.2143500358468494
0.2264395901169139
0.2382332475437991
0.24950941372557633
0.2601949999507188
0.27022313884841326
0.27953229540452035
0.28806495490683354
0.29576664703271116
0.3025856169413744
0.30847325560617106
0.3133849492192032
0.31728160141557604
0.32013092916929936
0.32190866078809943
0.3225995455910662
0.3221980241171086
0.3207086460203885
0.3181462524577537
0.31453550195862395
0.3099095370229984
0.3043079916154968
0.29777404172069394
0.29035085540453376
0.28207877620402383
0.2729930788499533
0.2631240648026401
0.25261209993109257
0.2420117919579247
0.23160455184354445
0.22098683903808938
0.20964268831877947
0.19727122065585528
0.18393377194745994
0.16990649019279386
0.1554646848560825
0.14086440636923897
0.1267228480137914
0.11382641048557872
0.08232493250407215
0.09412940809904156
0.10720481583619042
0.12092968603640668
0.13478125253532008
0.14848440018749348
0.16177391362961896
0.17443929225062127
0.18648891755429328
0.1982104019776773
0.2099843895007746
0.22200672277104244
0.23399081809315
0.24553880631222327
0.25654345250434274
0.2669700122109805
0.27678637083232704
0.28595762970486516
0.2944413010054533
0.3021845380113616
0.3091237481744298
0.3151870287029283
0.3202986511004849
0.3243852390499014
0.32738204407212623
0.32923879354649144
0.32992385472351493
0.3294265881044713
0.3277573334732949
0.3249455894436933
0.321036425199901
0.3160856861649058
0.310154777409826
0.3033055221858044
0.29559540322093725
0.28707458955792403
0.27778447029436704
0.2677584575014727
0.2570359636696913
0.24571552445425082
0.2338370531357295
0.22130363484206486
0.20800452985253887
0.1939603632282117
0.17935429618345025
0.1644330873787355
0.1494222192758734
0.13458559163224632
0.12059201038804705
0.10815258924480477
0.07816586530337549
0.08941419664850668
0.10212500552308844
0.11583101532914397
0.13002849125889027
0.14442590277997658
0.15874889528982
0.17274697869364894
0.18627592570821033
0.19934262339686387
0.21201747464301599
0.2242853888028712
0.23605026348879532
0.24726218278907633
0.25791708986220513
0.26801235467015094
0.2775444837834323
0.28649972264722434
0.2948465714613055
0.302531662110103
0.3094797114477584
0.3155979378707547
0.3207838276421644
0.3249355249925092
0.32796228470039485
0.3297938530124926
0.3303871704384569
0.32972930365304715
0.32783685665262513
0.3247519481329618
0.32053603361348487
0.31526241318225356
0.30900902529434293
0.3018521765944769
0.29386164564214656
0.2850983704835376
0.2756138305544763
0.2654514170566822
0.2545847928373291
0.24278757917250676
0.22994659488179808
0.21621888083409097
0.2017919791909216
0.18688943167667643
0.17174049483949042
0.15653740808875877
0.14145022764814713
0.12674261158190425
0.11311485668501797
0.10121397123092635
0.07340033415406219
0.0839432743660003
0.0960206063495611
0.1092889798012368
0.12328802575490079
0.13774671276307068
0.15241931557577332
0.1670575173356736
0.18142132054192933
0.19529961170227422
0.2084970713455283
0.2208043690270399
0.23226629473811494
0.24310934883449276
0.253406393769923
0.26317306992710177
0.27242085576360364
0.2811454629898964
0.28931809888840454
0.29688110783283794
0.3037486902391413
0.30981292820726014
0.3149540893281434
0.31905333781600764
0.3220057418268417
0.3237313437678554
0.32418262545557747
0.32334737270397174
0.3212471015116685
0.3179316525631415
0.3134714930675303
0.3079492412036404
0.3014517730486542
0.294064332235931
0.2858662925372378
0.27692948430395
0.2673182059654679
0.25709039165872144
0.24618799212595907
0.23419470770119158
0.22092094561419745
0.20668956371223637
0.1918624981558504
0.17676565099361904
0.16163356764668374
0.14660802836056713
0.13181881865763453
0.11753341332856691
0.10446339310900495
0.09318630333763828
0.06807918800756603
0.07781528822260718
0.08905513206920333
0.10154409677241662
0.11487346055666423
0.12881205881432733
0.1431659155086042
0.1577228061080861
0.1722060747001416
0.1862679380019155
0.19952476397519184
0.21161856670792153
0.22268015773577154
0.23312094979674644
0.24305768365630914
0.2525070834246384
0.2614787645233174
0.2699637664381036
0.27792640515555606
0.2853008176522385
0.29199286633905835
0.2978874562312066
0.3028596249724243
0.30678797263978286
0.30956767473924285
0.3111210922433265
0.3114044534181406
0.31040964425936507
0.30816171835728073
0.30471293670251137
0.30013500579910707
0.2945110367566187
0.2879288801613313
0.2804762142555209
0.2722375866909602
0.26329356115407215
0.2537203658555504
0.24359058455796995
0.23283626108663155
0.22094891315450416
0.20771057268088922
0.19353295211715174
0.17886132781876973
0.1640645827425503
0.14936906874734865
0.1348812400741906
0.12070710034999245
0.10711637406089258
0.0948005363861284
0.08425132257806765
0.062257956841214435
0.0711341295647857
0.08139911466519997
0.09285446055798949
0.10514221044515405
0.11807447370298295
0.13151471636867706
0.14530606603581928
0.15918742700848101
0.17276209039247986
0.185553208877601
0.19711824436241024
0.2076211458670138
0.21756001352152626
0.22706258077102984
0.23613225580210467
0.24476311140403198
0.25293069799719453
0.2605858865448955
0.26765325650976085
0.2740343177660616
0.27961517543429026
0.28427734546073274
0.28790986605018526
0.29042040424197313
0.29174382341895677
0.29184676859421976
0.29072808086309976
0.28841540739673804
0.28495948650223957
0.28042735183576223
0.274895893571347
0.26844711393229126
0.261164983748648
0.25313386814030675
0.24443797818808827
0.23516110761661488
0.22538578149728727
0.21504352380754474
0.20359120013725415
0.19080752911321835
0.17714423251376127
0.16308020240634777
0.14899846439314973
0.13511418163924166
0.12150968850889743
0.10827437679638924
0.09566742844182677
0.08432080539130699
0.07462403517578756
0.05602692703724425
0.0640312779322309
0.0732470946533486
0.08350943232896042
0.09450787841112775
0.10609002247336971
0.11816594453944955
0.13063272810231238
0.14327748708055235
0.15573077777306854
0.167519551806053
0.17819326399540172
0.18790621414288247
0.1971470394339178
0.20602734165071993
0.21453070017259834
0.2226306858618816
0.23028472402219885
0.23743058245864693
0.243986788948278
0.24985657303642617
0.2549352363558443
0.25911944663712566
0.26231697807977544
0.2644550535611538
0.26548617559831267
0.26539039527612257
0.26417445503107095
0.2618679102065294
0.2585181650971389
0.25418489802764843
0.24893574718183187
0.24284327829707983
0.23598348243858291
0.22843545744994773
0.22028117602913433
0.2116048968813246
0.20249167368712373
0.19287645409226442
0.18222304882415766
0.17032310175171178
0.15763457011917925
0.1446375414219798
0.13170714789567062
0.11904070053377445
0.10669986160770063
0.0947562257445162
0.08343902314475449
0.07328352108275653
0.0645720656821452
0.049520578765209725
0.05666734643668236
0.06480942247856293
0.0738056643338176
0.08339373934701146
0.09344704917880432
0.10390300707161816
0.11469621769489546
0.1256691229422508
0.1365249574286649
0.14686726455445182
0.15630671546599997
0.16496180516575407
0.1732369612942816
0.1812114319656859
0.18885246930243804
0.19611841742685582
0.20295538245604663
0.20929604543082905
0.21506097975874258
0.2201629280850631
0.22451279139535746
0.22802703831989538
0.23063478590384295
0.23228363748847333
0.2329431819707934
0.23260580512716245
0.23128504893473575
0.22901195219490497
0.22583082401696755
0.2217950008743246
0.21696361526019067
0.21139994138508736
0.2051708234602162
0.1983467885332531
0.19100225910513205
0.18321479553530526
0.17506334864228495
0.1664915193270885
0.1570185983716167
0.1464661681218191
0.1352585809638721
0.12383594658145361
0.11253499030937571
0.10152145221522409
0.09083652765606598
0.08053078632222756
0.07078689466255904
0.06201896528210404
0.054412374676358635
0.04291301429501347
0.04922447472665394
0.05629643310035176
0.06401179924206302
0.07216228378035625
0.08064198186592653
0.08939958361584396
0.09838774343866309
0.10749449879659877
0.11650648750715904
0.12513539283563394
0.1330916134979673
0.14044910736412144
0.14749040791887905
0.15425956750968073
0.16071797012022773
0.16682086566401552
0.1725156292099212
0.1777416577058115
0.1824315925633433
0.1865147769114938
0.1899216860598695
0.19258925879517377
0.1944661420276706
0.19551673020058705
0.19572362170535337
0.19508807170804165
0.1936283584852748
0.19137693678925383
0.188376761401671
0.18467774062286166
0.18033403431148942
0.17540238848885042
0.16994157772238624
0.16401241992263094
0.15767798427794247
0.1510031360637924
0.14405328516783475
0.1367881701612705
0.12883753856154434
0.120071020946243
0.11082751900133674
0.10145580696984571
0.09221627626984118
0.08323044931937051
0.07452091654107822
0.06611824775786226
0.058150376862775716
0.050902381981196815
0.04448355050679681
0.036407963437010304
0.04190065320339086
0.047914741289052994
0.0543597429595811
0.061088860777542435
0.06801730099445356
0.07509712960958823
0.08228592090685173
0.08950470810056711
0.09661577828115658
0.10343839854660677
0.10979100327557934
0.11570446089690743
0.12133310264058371
0.12669136876706294
0.13174592440417568
0.13646068960201307
0.1407956443513259
0.14470631703257994
0.14814441764904637
0.1510596084874183
0.15340271333335964
0.15512934498305764
0.1562040143900993
0.15660354419990566
0.15631931947757138
0.15535831818611576
0.1537420316751197
0.15150453178700346
0.14868915224914506
0.14534531803671125
0.1415252870848
0.1372819227057461
0.13266735199507593
0.12773227925570388
0.12252611415787515
0.11709697785969496
0.11149148704936693
0.10569113885913091
0.09947828022856604
0.092780744347327
0.08580898155637798
0.07877766494664262
0.07184504437460983
0.0650823483135453
0.05850003393508733
0.05211337453990634
0.04599549410967379
0.04030789431494347
0.03510592181260771
0.030224870370749474
0.0349052631224571
0.03987460037312972
0.045067478521594304
0.050401368291707646
0.055815948944663865
0.06126559809631138
0.06670888979827423
0.07209390041750299
0.07735093864221242
0.08239851426182287
0.0871573647865649
0.09161865319338945
0.09581508616919752
0.0997370519233979
0.10336182098529721
0.1066669300121582
0.10962877987532335
0.1122213293374979
0.11441591006743318
0.11618176916639233
0.11748816781894361
0.11830699559094202
0.11861617420406519
0.11840283460367267
0.11766586915076506
0.11641711309123659
0.11468123586836444
0.11249415038179165
0.10990013858645971
0.10694839758038893
0.10368952866307295
0.10017233699530695
0.0964416504645101
0.09253702109473465
0.08849268623040882
0.08433807773911091
0.08009885369112368
0.07577866606672906
0.07131904318427588
0.06670557183969782
0.06200990415326501
0.05730422494646935
0.05264246694091751
0.04804994173515401
0.04353125964618464
0.03909145043627047
0.03475311981339515
0.030566469307618697
0.026549814649177973
)
;

boundaryField
{
    "(inlet|outlet)"
    {
        type            zeroGradient;
    }
        "(front|back)"
        {
            type            empty;
        }
    "(top|hills)"
    {
     	type            zeroGradient;
    }
}

