/*--------------------------------*- C++ -*----------------------------------*\
| =========                 |                                                 |
| \\      /  F ield         | OpenFOAM: The Open Source CFD Toolbox           |
|  \\    /   O peration     | Version:  v1806                                 |
|   \\  /    A nd           | Web:      www.OpenFOAM.com                      |
|    \\/     M anipulation  |                                                 |
\*---------------------------------------------------------------------------*/
FoamFile
{
version     2.0;
format      ascii;
class       volScalarField;
location    "0";
object      nutCoeffs26;
}
// * * * * * * * * * * * * * * * * * * * * * * * * * * * * * * * * * * * * * //
dimensions      [0 0 0 0 0 0 0];

internalField   nonuniform List<scalar> 
1000
(
0.0014854480986329058
0.0030453836571554616
0.007722701040310044
0.015082711872311296
0.02081125552740184
0.02184784626269322
0.01832383719984181
0.012412272692512962
0.006738211430297733
0.002871824794838958
0.0008724457092724652
0.00010460344616147623
4.856711318275824e-05
0.0005614614737672953
0.0015513915280883374
0.0028191913068702002
0.004088414863793356
0.005067026269155987
0.005518682105645296
0.005325022243933491
0.004521215133603761
0.00329324647518392
0.0019354866842567653
0.0007779946298618577
0.00010217816438263547
6.732650942988857e-05
0.0006682231031803294
0.001736022607928552
0.0029826195289402745
0.004076773385987966
0.0047312264160333
0.004777366842138365
0.004207303438459644
0.003173128942672291
0.0019447088190014858
0.0008390901814154152
0.00014126671776912669
3.743104433297611e-05
0.0005924140228240257
0.001941041197950762
0.004565567195415188
0.008935626695661666
0.014782286096002125
0.020494805495010208
0.02365628873455946
0.02234889845263745
0.016506337986287943
0.009007437890815198
0.004054117282317215
0.002266552929267137
1.6108539888986656e-07
0.00024591113789732705
0.0024681323587931246
0.008338278965570827
0.015473653570337365
0.020090060952748536
0.020283440822007743
0.01652370163161057
0.010939497441157664
0.0058776441522416425
0.0024891084401753973
0.0007009540539726057
2.4006702995912548e-05
0.00026340438366910106
0.0013076572335022324
0.0028854909116751456
0.004598110651384102
0.006011154625313153
0.0067616744090249516
0.006652116650750256
0.005704936688520704
0.004160982082801688
0.0024198284626515357
0.0009361125238756561
9.917640657613989e-05
0.00012836016415137709
0.0010129311576892268
0.002513655413846225
0.004226236339981927
0.005689576742412584
0.00650945642773039
0.006464191195531556
0.005563668028618026
0.004046906253389979
0.002319972246260253
0.0008525599551168495
6.174606380660918e-05
0.0002135015291589141
0.0013905848019197694
0.0037271591742029523
0.007577023962147232
0.01282969698684708
0.018263931371083748
0.02170325545234459
0.02128192696798573
0.016618680052866652
0.00945102458344502
0.003310431952747206
0.0006375534679140274
0.00011302366885161716
0.0014395833556860018
0.0006249748788609205
5.115397890998488e-05
0.0025896591732064147
0.008376083475563373
0.014513674481034817
0.018090625931311083
0.01775030269521494
0.01407840658129732
0.009101980075586727
0.0047595619501478335
0.0018670929592295438
0.00033352348541219797
4.10957032994601e-05
0.0008887541699051825
0.0025588845716840183
0.004554075848052629
0.006314886346922966
0.007358563521881484
0.007402288806544036
0.006436940546064329
0.004729444589388763
0.002751163570518656
0.0010499792748862248
0.00010040920858392598
0.00017252348957270947
0.0012560667002590893
0.003061297552741605
0.00509682315623349
0.006803542345095478
0.007707827634049149
0.007552468826794275
0.006369542924062614
0.004476462340373015
0.0023971496615976715
0.0007311238232161086
5.883605981804853e-06
0.0005512719225859511
0.002451323978172517
0.005722781599632226
0.010272999212815083
0.015182494260255119
0.018613412967991516
0.01878639339849634
0.015244246416000634
0.009207648804947356
0.003302075254213823
0.0002586992871354796
0.00020199594825256345
0.0006995609757491792
0.0052869713988914655
0.00393504684720992
0.0012360436080146883
3.60284298497024e-05
0.0024078207308949095
0.007307424896582815
0.012229749543833553
0.014874801118827061
0.01415194552125075
0.010775063010880779
0.006575465115712491
0.0030711948206526684
0.0008388501912225224
6.157308734644889e-06
0.000518263860900978
0.0020553595180892795
0.0040837308745294565
0.005984494401720048
0.0072077006425384366
0.007411442123568701
0.00654797442861031
0.004871996631608726
0.0028674744087161196
0.0011115834591531436
0.00011289943873642247
0.00016813674637725296
0.0012775215231753882
0.0031426420695538433
0.005247933252872556
0.007003394750648751
0.007909272640149187
0.0076974856882837984
0.006411014797057121
0.004400425008091145
0.0022391915663882885
0.0005819404492939273
3.6981065198088536e-06
0.0008619927683150113
0.003224420735157814
0.006871533079721555
0.011077484665840732
0.01433413825891482
0.014983473205979501
0.01245658169812489
0.0077579551495405375
0.0029147199910463037
0.00018503125656671164
0.0006234500462056411
0.002564406978611773
0.0035868031271580106
0.010071652747565782
0.008750210902688705
0.005253034828521638
0.0014348889612436071
5.978139832814257e-06
0.0016914645918975578
0.005341118082723764
0.008953673909068535
0.01059684447780557
0.009520595887951813
0.006604437131081181
0.0034170894184516864
0.0010927612050123407
5.290535450457188e-05
0.00030412009400340034
0.00157424702862238
0.0033804670152718275
0.005146890077226512
0.006348410010135709
0.006643272028438061
0.005958269882358055
0.004502437082726285
0.0027044738447722654
0.0010900637145613626
0.00013271251261104028
0.0001192632228006064
0.0010677314555525093
0.0027207000581683217
0.004616380656877881
0.0062177161316602685
0.007063618729828198
0.006900650194480327
0.005758785228622761
0.003951473202282735
0.002000542346283478
0.0005075677296435284
6.0877089902690515e-06
0.0008333182564210471
0.003036807811598037
0.006167651154283381
0.009034855730182352
0.010137691927749402
0.008693399978468026
0.005396263093226341
0.0019401290124376296
6.941889043775353e-05
0.0008408154866879061
0.003715537818427653
0.006427984219818434
0.0074372435311936365
0.013930155215953118
0.013036108519446182
0.010103739345458645
0.005649214700537266
0.0017520050311900692
3.635397528477808e-05
0.0007642560969301088
0.0030324516279644463
0.005203922400606513
0.005801944726886428
0.004585612308292087
0.002526317825939392
0.0008286394545322802
4.3426949378360514e-05
0.00022019170057484548
0.0011740817073900918
0.002553862116050524
0.003927545811909598
0.004890980970722228
0.00517096757528499
0.004694709597802268
0.0036059189221237364
0.0022222114838128717
0.0009447228944499098
0.00014466836375015825
5.823532032075131e-05
0.0007192839477714984
0.0019489331738551182
0.0034051048479622785
0.0046781566706041895
0.005405827182946658
0.0053756081016174875
0.0045862910196743985
0.0032526875626278273
0.0017530460413487585
0.0005346924996044719
3.543190330616777e-06
0.0004264418176998575
0.0018417473404042132
0.0037558696354771486
0.004996379060196183
0.004621588599365685
0.0028029003728164393
0.0008002595985692307
4.596472042680405e-06
0.0012003369657828274
0.004211666196755345
0.007703417548429545
0.009950577460059097
0.0105753755498458
0.01536522013630512
0.015016213619710434
0.013484380698830999
0.01021175429564145
0.005996060712032156
0.0023493971174823602
0.0003199085504609249
0.00011070708160954441
0.0010462086925007127
0.0019022759562614291
0.0018502442409386814
0.0010685917483085328
0.000314023160149714
3.143674965302543e-06
0.00019195289981368662
0.0007958513103286647
0.0016312992605055435
0.0024602126003981516
0.003050862304936163
0.003239068691792138
0.002972621307851047
0.0023259200518982053
0.001479993073861495
0.0006726555224410314
0.00013240017131475307
1.44085525565354e-05
0.0003567690324782692
0.0010694439990053127
0.0019591421148725417
0.0027830138103570267
0.003315877736781778
0.0034120847607880525
0.00304490096479002
0.0023133116669647427
0.001415305907975094
0.0005961827530650363
8.653169133699736e-05
4.650503652414562e-05
0.0005114501640605309
0.0011724620148521974
0.0013378376975345754
0.000763870712686042
7.736945371482278e-05
0.00026109313488498366
0.001862952127098122
0.004730658620823479
0.00802427651259527
0.010512922442538793
0.011567175517634653
0.011703782881216226
0.013862373608879194
0.013930774358473232
0.013870947879456677
0.01263660294015502
0.009842966825266615
0.006289356057963727
0.0030522377967152296
0.000905145313807
5.9496742931475766e-05
5.936580149038203e-05
0.0001893470231146525
0.00012754114055616407
2.0470988906540656e-05
1.1584280662840006e-05
0.00013439972149368728
0.0003782270748568889
0.0006954667422025284
0.001012240394609591
0.0012479808342188731
0.0013384897603334457
0.0012556070039334974
0.0010173148912477022
0.0006847886945477382
0.00034671845397397146
9.519110883078507e-05
3.3472527680768595e-08
8.915409764282131e-05
0.0003407263658281572
0.0006894664892438931
0.001045041175459439
0.0013170063181254124
0.001438929237019214
0.0013848018518139785
0.001173568835279021
0.0008612582953600442
0.0005238322192055954
0.00023625194806246055
5.38063577454893e-05
1.0691839913281791e-07
1.974708223589622e-05
5.966779052615971e-07
0.0001343710762697709
0.0009261656508802545
0.0026941959111514194
0.00525167515343745
0.007986649922616159
0.01005088108120517
0.010823957667060794
0.010655639577350051
0.010430814268000951
0.01007550420106569
0.010322535780759165
0.011200676772830301
0.011729032804781327
0.010910291975734319
0.008796300483226455
0.006044259005591654
0.0034170263912705148
0.0015054281213029194
0.0004949867757725869
0.00013030794408472462
4.152739516940698e-05
2.1840706278208736e-05
1.765824188707797e-05
2.1782863813957422e-05
3.4120608038022796e-05
5.5461464225562115e-05
8.437990647511472e-05
0.0001158759935434195
0.00014219300193973224
0.00015532670518920996
0.0001500783258271078
0.00012633655992158645
8.961045349831733e-05
4.956362135414787e-05
1.7073518765988118e-05
9.043993864464008e-07
5.196759795751389e-06
2.8600980933565736e-05
6.523066078762759e-05
0.00010692432931995878
0.00014588908981072576
0.00017679710083661965
0.00019776172073918287
0.00021014156679825425
0.00021757158356067202
0.00022480159319804288
0.0002368412831543782
0.00026437289742879346
0.0003769142599799936
0.0007591363637194388
0.0016645693694177692
0.003238296311587039
0.00529645495883703
0.007366243567611226
0.0088594334768736
0.00928145956850601
0.008628237533504545
0.007728179778567717
0.007369983535901783
0.005497252465971623
0.005719490831473526
0.0067986546689364985
0.008124513507011853
0.008705441353668226
0.00817074103142376
0.006714471335871169
0.004791874728114966
0.002912392665653861
0.0014800522621992802
0.0006195352725888233
0.00019468770448494702
2.319466516385962e-05
8.271461359809283e-06
8.010252133091733e-05
0.00017723573033095465
0.00025489231272577724
0.000288707291775865
0.00027376334282371473
0.0002201396473774733
0.00014665376369891138
7.444721544827442e-05
2.170390889430217e-05
2.11019053699277e-07
1.390936371048445e-05
5.9130577603703146e-05
0.00012601719145184512
0.0002006164619820341
0.0002672967212378486
0.0003112982158973035
0.0003213492422824328
0.00029226765243021345
0.00022731456730271598
0.000139887626678279
5.397871818066584e-05
2.8400565980353306e-06
2.5540809949720207e-05
0.00016154514457459811
0.0004428047558652545
0.0009158088861046161
0.0017042820731715655
0.0028908180034316264
0.004354970596067642
0.005775642605567643
0.0067648523266646745
0.006985474542597631
0.006315904611877312
0.005085832197472481
0.004092990163391104
0.0037954143080817277
0.0017841952812817422
0.0018940944997528672
0.0026224245865973214
0.0037695570490954263
0.004723349812356761
0.005059725691841241
0.004696574228533157
0.003783094030279134
0.002579426480185757
0.0014051093129887663
0.0005297719759889789
7.052458973531964e-05
3.1410468203007146e-05
0.0003242324612786136
0.0007972281286050508
0.0012943525158031304
0.0016842981831230047
0.001879946108707708
0.001848003115098085
0.0016081569459142886
0.001222977755791282
0.0007813458538967142
0.0003789804882290779
9.963414895782551e-05
1.6384139876251245e-10
0.00010032092335055289
0.0003816611534721446
0.0007898088318583757
0.0012450277894857377
0.0016562455393184907
0.0019377547996202512
0.0020260755128467442
0.0018941860327784913
0.0015604773359697542
0.0010900914893264859
0.0005875418409129802
0.00018107813310273493
1.1061948749127398e-06
0.00015194455800057776
0.0006536145534023104
0.00144454588421452
0.0024043701246696035
0.0033187250989421286
0.003949865871232545
0.00410981823239252
0.003701243455864449
0.0028189905688576627
0.001826693276764977
0.0011999094779743308
0.001050961475148793
6.928711871055646e-05
8.465156229264764e-05
0.00027128702110286717
0.0007250444059424516
0.0012831738066945895
0.0016835207461127566
0.001773252125767025
0.0015328563929161904
0.0010363326246889686
0.00046082277580841913
6.03436954641054e-05
6.007778028222446e-05
0.0005417856687224198
0.001375752948795547
0.002348279850101192
0.0032460934484910306
0.0038887886275108057
0.004157342616264362
0.004010697400241559
0.0034881431859567417
0.002697789600381307
0.0017939205771269565
0.0009476633974628881
0.0003162015326543087
1.562156245313192e-05
0.00010146866730733664
0.0005597290507458602
0.0013093412943997486
0.002215814176675232
0.0031140254835227846
0.0038368804064580807
0.00424559096375729
0.004256331382499206
0.00385842715796072
0.003119977796095678
0.0021789889178234667
0.0012208373780305047
0.00044589333169235137
3.617333160809075e-05
7.370215753983378e-05
0.000440763809266219
0.000921561785136986
0.0013048806003008644
0.0014554688508121192
0.001325298498665191
0.0009481291668884081
0.0004722326482046743
0.00012486378675836542
1.2004693592492548e-05
2.574634809938637e-06
0.0005764279798601194
0.0005517622882139065
0.0002999968546305549
6.393206891947479e-05
4.7193152972526556e-07
4.6894820425638466e-05
9.74485034843599e-05
9.095946031673335e-05
3.0364231061615522e-05
5.783984589773728e-06
0.00018875476444600345
0.0007423055276069444
0.0016627729719085427
0.002770625831209804
0.0038667886364443303
0.004768220669582778
0.0053271828514362286
0.005454367741670235
0.005132293575852622
0.004416926211167951
0.003427489369542944
0.002326390020826358
0.0012927062773064534
0.0004934923227896265
5.737693413574354e-05
5.4311724580084994e-05
0.00048439021209341137
0.0012773894319116491
0.002303278702340697
0.003392440041172739
0.004362895617803132
0.005050558346305259
0.005337497101237316
0.005173188079829111
0.004584411211154198
0.0036713588331878546
0.0025901880428717923
0.001525076584775316
0.000664227417243137
0.0001626172783522879
4.114732134051279e-06
2.8053974958598118e-05
7.81080453520105e-05
7.712333856768779e-05
2.9486512238708442e-05
9.819620384328068e-07
9.726339277405706e-05
0.00037676769874461834
0.0006823639047423213
0.0007638425663640404
0.0026734319346336183
0.0026329234298327646
0.002147615697684902
0.001491495182443013
0.0009532396961617425
0.0006042558443645143
0.0004160025286098773
0.0003504243806350176
0.0004004354014669298
0.0006018684175797523
0.001015267727043043
0.0016584386962628494
0.002428260273245529
0.003186632410295974
0.0038315377596353606
0.004278350058104121
0.004466515556887007
0.004368442810061558
0.0039939537105269166
0.0033896059713890256
0.002633009018886321
0.0018228148073163343
0.0010657312166326982
0.00046222339116316696
9.276940726784322e-05
6.504083732749009e-06
0.0002137781406290198
0.0006838586970093069
0.001348357233308825
0.0021102927562937617
0.0028578607998761
0.0034810953148533765
0.0038888637542039838
0.004023251074979133
0.0038686234609963737
0.003453414299544759
0.0028441390672914344
0.0021327611574273528
0.001423632963857006
0.0008431064336450046
0.0004784941222899271
0.0003064879528082996
0.0002681483840945415
0.0003336686314323901
0.000517421859998434
0.0008635084361649952
0.0014056185151004562
0.002082248531189841
0.0026265038552533318
0.002767577362481573
0.005272158789607817
0.005188114932806135
0.0046131396403094865
0.0037827258720178293
0.0029698243208489206
0.0022965588115412597
0.0017971208873395884
0.0014739327513314567
0.0013226596341471104
0.0013310077516447863
0.0014647887165102653
0.0016470203380648972
0.0017890034345690023
0.0018682098106775006
0.0018839676601861274
0.0018353243023806489
0.0017257367096757416
0.0015625507273387548
0.001356425137207311
0.0011207468579736055
0.0008710568382404406
0.0006243903334295328
0.000398450755583139
0.0002105265110226438
7.612555099966729e-05
7.387508862838233e-06
1.144700844436385e-05
8.901809925902569e-05
0.00023351933987853323
0.0004310588864117578
0.0006614786937627028
0.0009004966281821215
0.0011226809732691686
0.0013048315317211816
0.0014291303257917699
0.0014854247643284492
0.00147221566977742
0.0013961500504050817
0.0012649433789289563
0.0011013497506976006
0.000982609320800512
0.0009758439796904105
0.0011135824378199952
0.001415077493923182
0.001894965876847053
0.0025584970802226565
0.003376525349002945
0.0042361193473256144
0.00488532627250301
0.005094312569426763
0.007335835919417312
0.007155707707973015
0.006527619007573661
0.005618213183563213
0.004616947692473995
0.0036469394229437513
0.0027874118164781148
0.0020854957784155665
0.0015527667388071863
0.0011622685543798807
0.0008605455128917071
0.0005920757525623701
0.0003533331115154111
0.00017732159931772216
6.865859712221447e-05
1.5452182520630714e-05
1.840176357200896e-07
4.411060170277391e-06
1.298277746156414e-05
1.676294192594769e-05
1.3342221451749444e-05
5.828597256374928e-06
3.1297777409390097e-07
2.891638281356331e-06
1.7128696324581114e-05
4.2608536020462285e-05
7.485488800047187e-05
0.0001065117695491423
0.0001293798625533149
0.00013674736211611422
0.00012544722942745495
9.718496295045742e-05
5.888665914122486e-05
2.2010233559350226e-05
9.809312607044958e-07
1.1031936499868075e-05
6.581566127504125e-05
0.00017515381310732322
0.0003379950413587504
0.0005317357104216014
0.0007614346096771922
0.0010774129096137017
0.0015337062785231287
0.0021652146817198264
0.002971561716998529
0.003913822995252107
0.004916206796665583
0.00585980829374696
0.006567701402488966
0.006877046734937811
0.008250306777157355
0.007942033635869636
0.007241871766581674
0.006249868487104134
0.005077888429750387
0.0038454197164075176
0.0026751007366458378
0.0016699321728683878
0.0008894622474817703
0.00035083645086930574
5.5535587038542454e-05
1.82789807911076e-05
0.000257542774218775
0.0007202002912623818
0.0012962525778957522
0.0018606063297303412
0.0022956609501309315
0.002513826752139121
0.002473865077529898
0.002187688553378824
0.0017163683102329804
0.0011565134283619233
0.0006202045101322783
0.00021274725462391747
1.2729516925741625e-05
5.798629289445969e-05
0.00033971446776893244
0.0008052985967600124
0.0013688712789704186
0.0019274099015811352
0.0023794022931935468
0.0026428923782763295
0.002669854670322354
0.0024546312127863203
0.002035043709410864
0.0014861195941432064
0.000907534186340903
0.00040704418682386173
8.53545327591047e-05
3.1421588635415074e-06
0.0001567779100297486
0.0005420846778354013
0.0011686369532186815
0.00203256584303249
0.003088994740636302
0.004246759779009765
0.005389167778425234
0.006399614766627231
0.007171554257905007
0.007604105009105126
0.0079336949231777
0.007513245026953297
0.006739897021873359
0.0056731203803742905
0.004392885138033825
0.0030347482103639757
0.0017698382788533108
0.0007651331630997597
0.0001506148575077584
1.441761266358174e-05
0.00041229252287774574
0.0013655604495286335
0.002801269694157276
0.004503531355909112
0.0062020956929210985
0.007625551917940652
0.008540696391367281
0.008794347543635929
0.0083415175935642
0.0072542443436093345
0.005709422339165661
0.003958158045214935
0.002282584581848558
0.0009483305514423517
0.00016094700305497255
3.357969782920677e-05
0.0005707097745805474
0.001669898127425479
0.003140586656341636
0.004736444112570506
0.0061958443277321555
0.007284036310279682
0.007830161295119606
0.007753397697794776
0.007073950251895859
0.005907287468969377
0.004442856438951828
0.0029112523832577246
0.0015533620225953006
0.0005773054350795884
7.310737490536905e-05
4.525980922916538e-05
0.00046475683362805437
0.001269930650563707
0.0023567837941066887
0.003580840193911154
0.004785941441933941
0.0058437972125579005
0.006676636840202991
0.007219149812641541
0.0067098541437056285
0.006235349138154561
0.005437611795705562
0.00436894972829131
0.0031216686430958858
0.0018591376106141407
0.0007900427514771756
0.0001267106254540863
4.857925159964123e-05
0.0006800697171548193
0.002069903728912962
0.0041645181516921535
0.006765509276678176
0.009539751493802054
0.01210997866311087
0.014111003875843475
0.015244510013937644
0.015331016675973894
0.014343073564063596
0.012413260766428008
0.009815456109916177
0.00692267058120243
0.004149072815930892
0.001886131257103299
0.00044344919334484296
3.408494117940927e-06
0.0005961416573861694
0.0020980500447710685
0.004253418787512163
0.0067155494253239734
0.009100806748347966
0.011047487409167901
0.012270054935032358
0.012600505487342569
0.012010058088154843
0.0106080183236913
0.008618417214936305
0.006339185492583241
0.004096546610193616
0.0021975405624265025
0.0008475544332006369
0.00012937051822656652
3.34321539470663e-05
0.00047851127379851694
0.0013284821991582704
0.002409598546964563
0.003541493669007531
0.004576034149557245
0.0054237486128238315
0.006023343629847359
0.005069100208051396
0.004611937344391113
0.0038694029665546025
0.002909278903316556
0.0018521915562897757
0.0008762449356670426
0.00019316895252532748
1.3416879781125933e-05
0.0005091871194134495
0.0017800800451647906
0.0038218778958723247
0.0065052865402385725
0.00957429111041641
0.012679934740546723
0.015436534866109825
0.017477854314801766
0.01851525541214154
0.018386943769287078
0.017088089362517017
0.014776147433332592
0.01175040710618292
0.008409267027631373
0.005192429261981513
0.0025174077975165187
0.0007201331032317739
8.301858927704542e-06
0.00043394439637499974
0.0018887741569649258
0.004122624627668813
0.006782291764934481
0.00946481579479556
0.011777447500946765
0.013394912575651539
0.014104977479685171
0.01383502733429946
0.01265565551613186
0.01076131543426283
0.008432335175905357
0.005986615083546698
0.0037312366531638544
0.0019123311696486022
0.0006788308616060766
7.615096109685485e-05
5.889967793949712e-05
0.0005132990286156896
0.0012828337753277644
0.0021974134698938587
0.00310342187001981
0.003886618713356474
0.00446966176119781
)
;

boundaryField
{
    "(inlet|outlet)"
    {
        type            zeroGradient;
    }
        "(front|back)"
        {
            type            empty;
        }
    "(top|hills)"
    {
     	type            zeroGradient;
    }
}

