/*--------------------------------*- C++ -*----------------------------------*\
| =========                 |                                                 |
| \\      /  F ield         | OpenFOAM: The Open Source CFD Toolbox           |
|  \\    /   O peration     | Version:  v1806                                 |
|   \\  /    A nd           | Web:      www.OpenFOAM.com                      |
|    \\/     M anipulation  |                                                 |
\*---------------------------------------------------------------------------*/
FoamFile
{
version     2.0;
format      ascii;
class       volScalarField;
location    "0";
object      nutCoeffs54;
}
// * * * * * * * * * * * * * * * * * * * * * * * * * * * * * * * * * * * * * //
dimensions      [0 0 0 0 0 0 0];

internalField   nonuniform List<scalar> 
1000
(
0.000287486394493815
0.00040169498848154094
0.00046136661075046675
0.0004576923794878416
0.0004281835331172428
0.0003855272743653679
0.0003261859163642499
0.0002529376353034262
0.00018340658223093932
0.00013593953747156282
0.00011647027439098143
0.0001254280888970987
0.00015556880265269016
0.00019374301500578193
0.00023573161806770052
0.0002807696337662508
0.000327987923780901
0.000376458444802424
0.00042520161284343463
0.0004731563786174145
0.0005191300780323672
0.0005617553245998076
0.0005994902595402662
0.0006306949698829408
0.0006537834195498387
0.0006674297274229769
0.0006707840313595553
0.000663623561668092
0.0006464045686003873
0.000620186397468747
0.0005864615343037633
0.0005469356531365282
0.0005033290272347939
0.0004572296970799698
0.0004100211459638684
0.0003628736798652637
0.0003167687537782974
0.0002725336904486724
0.00023602819599899156
0.00022710802044067417
0.0002575343995226852
0.0003273866829215217
0.0004352859402009511
0.0005705090103969656
0.0007192601020896886
0.0008761373799726141
0.001029906241350023
0.0011200308474630092
0.0010297099684661905
0.0007762013222344235
0.00037235332591831666
0.0005203114467848063
0.0006089261808088327
0.0006216718638257239
0.0006034329284334017
0.0005748194128176349
0.0005310762369260796
0.0004662481318094688
0.00039171071957740637
0.00033268404283767766
0.0003111451122237412
0.00034274573645594054
0.00041915291013044725
0.0005134688086142659
0.0006168745537128887
0.0007276796773382785
0.0008437794845900398
0.0009627013809159291
0.0010816251795640966
0.0011973841919657978
0.001306473563294755
0.001405112481029118
0.0014893856663855762
0.001555521191462262
0.0016002462489301832
0.0016211861795737202
0.0016172018709672414
0.0015885700515858112
0.0015369594918344354
0.0014651987711022476
0.0013769124053356128
0.0012761031489050805
0.0011667929765408309
0.0010527552611099358
0.0009373675304468928
0.0008235529635110529
0.000713766959120807
0.000610001167656005
0.0005235476056035069
0.0004912481546794466
0.0005305691673263686
0.0006321218465378716
0.0007827577863278519
0.0009583763624544014
0.0011365130857271199
0.0013080914549101282
0.0014539749376136642
0.001499614528680834
0.0013301878332208185
0.0009938551774296468
0.0004672406497750112
0.0006547411388507036
0.0007847915234727418
0.0008278688486940128
0.0008296386197553143
0.0008196666898611194
0.0007983145822692127
0.0007580968139034678
0.0007052700911696056
0.0006650640518646826
0.0006716500651935654
0.0007611838753920884
0.0009281557759336294
0.001129163514100876
0.0013488990275989027
0.0015833111672465042
0.0018271693820483166
0.0020742446907404135
0.002317542893200817
0.0025495672364217775
0.0027626184710851623
0.0029491529261831875
0.003102190562490258
0.0032157972753592175
0.0032855657038901773
0.0033090091600808426
0.0032857915825945574
0.0032177134620597174
0.003108455128634427
0.0029631395130879723
0.0027878185521450108
0.002588984585918179
0.002373205591351948
0.0021468783507735466
0.0019160785787336702
0.0016864735232077926
0.0014632086169801565
0.0012507743509687105
0.0010697214232256664
0.0009840726017164652
0.0010185372746392733
0.0011452334447765293
0.0013314417145951993
0.0015347446244052107
0.0017210537338296344
0.0018751448970284461
0.001969845516323519
0.0019257643547563046
0.0016489043654464874
0.0012220860610589422
0.0005628873392889637
0.0007933163868743807
0.0009785215848091213
0.0010731860665142558
0.001114100386336244
0.0011355102701238427
0.0011448620108230221
0.0011398502642131513
0.0011300122775065287
0.0011433441686357795
0.0012221606183755026
0.0014199450206617715
0.001734279998349027
0.0021052588426578485
0.0025097470297858904
0.0029390969819231253
0.00338218169822926
0.0038260022090655195
0.0042564894641110435
0.00465938935528985
0.005021159509602975
0.005329772461094355
0.0055753872190037225
0.005750872515840789
0.005852098383871942
0.005877970954208302
0.00583020639781066
0.005712883664742095
0.005531850777515526
0.005294137057298512
0.00500747272023383
0.004679988886300544
0.004320131964038005
0.00393666721582079
0.0035387026263286685
0.00313561587732067
0.002736798193260372
0.0023512201092886374
0.00201317212723317
0.0018248928001968095
0.0018211551540943188
0.0019470890499560549
0.002142089442447471
0.0023386573838003084
0.002487026520276007
0.00256589388795005
0.0025467502656379825
0.0023617618065277495
0.001955375368535016
0.0014396326287172442
0.0006469380185802357
0.0009193235133441614
0.0011704784443932583
0.0013413939444296946
0.0014509283583329323
0.0015297455959497068
0.0015891521516414443
0.0016337198801762416
0.0016833445954197994
0.0017775579091392848
0.001969706112183369
0.0023264162528678647
0.0028442330100939164
0.00344653054855271
0.004101404974703346
0.004793476323502733
0.005503238354980588
0.006208384151719323
0.006885527631369526
0.0075120065770740195
0.008067546880404558
0.008535555267230582
0.008903932403937007
0.009165364228329679
0.00931709306428917
0.009360290240636003
0.009299124223937617
0.009139764573275965
0.008889498587621942
0.008556114819607486
0.008147708182371155
0.007672791914621999
0.007140735047473748
0.006562230980319377
0.005949567445167922
0.005316657955049762
0.004678563080723924
0.004050697628545554
0.0034845012211728982
0.003128442735385412
0.0030313492965037886
0.0031055401466196075
0.0032536858090533665
0.0033764748690056855
0.003408739298694648
0.0033306756686801303
0.0031263435161552776
0.0027569364878994016
0.0022133381463621277
0.001621599637156575
0.0007070853842862124
0.0010148447943624855
0.0013350152138640098
0.0016026346569637314
0.0018146045705660357
0.001989124181545071
0.0021343177831291854
0.0022577933414364274
0.002390775195684442
0.002590919297700761
0.0029293031248675016
0.0034855151283129803
0.004250467534841515
0.00512964739523798
0.006082034067038377
0.007084623487511635
0.008108701511043023
0.009121991026546027
0.010091326936643713
0.010985403123753353
0.011777153005830068
0.012445462131901211
0.012975963188553381
0.013360996207925002
0.013598721297680465
0.013691769143158549
0.013645646576152987
0.013467292160482031
0.013164057124436683
0.012743261092838833
0.012212422821115109
0.011579909661574076
0.010855914151378888
0.010053296334699929
0.009188084799685092
0.00827943656847615
0.0073489492422225255
0.006419496802409588
0.005559952510681334
0.004964926474787843
0.00469899925384991
0.004639141268508978
0.004645916969297297
0.004589766387635813
0.004401546270721043
0.004078056190546704
0.0036302419137659507
0.003056861156855787
0.002388446042949271
0.0017442919916339221
0.000734835776140597
0.0010659912654190794
0.001447195684798271
0.001818886689630865
0.0021599552804942063
0.0024714140121196724
0.0027508194484863633
0.0030013080228286394
0.003259579431666107
0.0036007106066905997
0.004117074174410171
0.004902328168855451
0.005939834839552231
0.007118062372501982
0.008387932915313225
0.009719740072093324
0.011077023133320886
0.012419293433689952
0.013705300796096116
0.014896379809083047
0.01595924217837263
0.016867950192530234
0.017604669390534945
0.01815939151740958
0.018528681950821583
0.018713878186474554
0.018719216468353447
0.01855025719392225
0.018212986607687973
0.017713741731326237
0.017059811606164554
0.01626050566898014
0.015328368831987068
0.014280026685941088
0.013136517960659743
0.011922938636948105
0.010667486809809097
0.009400005688014822
0.008202374521563255
0.007301537215275484
0.006772665653249708
0.006461884780696437
0.00619569389265714
0.0058330049648129285
0.005322443187683196
0.0046908071008080815
0.003979479940780724
0.0032178057546727265
0.002456987100999651
0.001790886933162899
0.000728064016778381
0.0010671284130063562
0.0014905463043704008
0.001954826173903937
0.0024316536145487823
0.002907896678835714
0.0033677853595356997
0.0038030469973585525
0.004245333242899172
0.0047774627671852785
0.0055080812153578355
0.00654168097654814
0.007855421402721566
0.009327273886714895
0.010903330612618582
0.012549695628476657
0.014225584740102276
0.015886031099026452
0.017485150149307398
0.01897935828012813
0.020330140263140846
0.021506005365071783
0.02248335331917223
0.023246345519009125
0.02378583102929513
0.024097842192136697
0.02418203645759334
0.024040500376597964
0.023677263555010635
0.023098520089055854
0.022313441739930193
0.02133512298303611
0.02018144858145934
0.018875359400549685
0.017444482914849475
0.015920259104136213
0.01433662800578282
0.012728624660332505
0.01118158434295228
0.009924519172755556
0.009031161191298258
0.008336532559132123
0.007662767025037764
0.006890416517040791
0.006004707300448287
0.005061291874140777
0.004119249212359495
0.0032193699830050868
0.0024119886007992323
0.0017557133613646297
0.0006909377584740989
0.0010218032127203812
0.001461837714918293
0.001989460987520925
0.0025815653156712813
0.003220679223698541
0.003882722663516789
0.004547102820170778
0.005230772568606657
0.0060079768416545385
0.006987845850175705
0.008273850432113514
0.009840220565693393
0.011567871766269545
0.013403487650663508
0.015312444180990087
0.017254050641165548
0.01918366126381908
0.02105504303315498
0.02282273850399517
0.024444241883935132
0.025881751386866256
0.027103301705276975
0.028083345520086827
0.028802707699379378
0.02924824497214092
0.029412377101315113
0.02929279008467296
0.028892435840081096
0.028219822771910003
0.027289417630478586
0.02612178254420446
0.02474333664074562
0.023185536357550354
0.021483509976728165
0.019674616670521426
0.0177969696167045
0.015888382405811866
0.014025469596226268
0.012399312332447475
0.01107011618833795
0.009898913708639616
0.008747247407543148
0.007546380185379904
0.00631864899516234
0.005130226257845774
0.004036059280038057
0.003068787317598076
0.002263756139978392
0.0016451253711655043
0.0006313975810431566
0.0009400358671325882
0.0013702454696250472
0.0019219364516175539
0.0025854013962451922
0.003349684128724651
0.004192807736893417
0.005088944994657388
0.006038049953100317
0.007090430580958767
0.008333152584359387
0.009848513428925516
0.011610664615741907
0.013520947079056081
0.015533195461643253
0.01761557565690565
0.019731840807924273
0.021842179524808384
0.023904038504988148
0.025873047981350473
0.02770415073356406
0.02935300381454965
0.030777575473773782
0.03193998196996902
0.03280823789980269
0.033357844813892555
0.033573085304150554
0.033447881685730305
0.032986178505345555
0.032201821309593405
0.031117809337030778
0.029764927133691815
0.02817994059988671
0.02640343963644345
0.02447762795833196
0.022444567047049245
0.020344869560056166
0.018217203461258425
0.01611990385914773
0.014174559853623843
0.012423422973395062
0.01079193273121453
0.009213808052087604
0.00767699390159113
0.006222779770026655
0.004904897158380431
0.003757467669729679
0.002795141563710179
0.002035001691392525
0.00147478639237619
0.0005579485457374068
0.0008340190745571404
0.001232091283915648
0.0017684743941208667
0.0024484343513350485
0.0032737272005144377
0.004233752598243524
0.005308024855662749
0.00648573327652522
0.007787164102494241
0.00925893488447192
0.010942042005244774
0.012811395765708595
0.01480336408259361
0.016884290092077023
0.019027750321812056
0.021204796257728458
0.023383260378258955
0.02552678873354523
0.027594130673824515
0.029539089995940324
0.03131158183153665
0.03285983126948702
0.03413369087435039
0.03508848101200469
0.03568888705148111
0.03591212907785293
0.03574999165838216
0.03520928882373345
0.03431088654130515
0.033087422144821084
0.03158017179400629
0.02983564461008402
0.027902360937107837
0.025828133843900637
0.023658339392566376
0.021435019738524616
0.01919683324825906
0.01698172009050508
0.014835349734234829
0.012786155679453261
0.010838411640656999
0.008999499951425025
0.007296909605673535
0.005769462463861966
0.004445981317468694
0.0033361498319949175
0.0024377867037145206
0.0017537012277170827
0.0012650589502537688
0.0004775858157243135
0.0007148574322341608
0.001065114456012546
0.0015540843594063947
0.002198444823432079
0.0030125569992455344
0.00400066452618827
0.005155032186034869
0.006463536281739357
0.007921373809941321
0.009530484335283432
0.011282437761191226
0.013152656214646978
0.0151172604835615
0.017156960828739933
0.0192514942082095
0.021379512610488653
0.023516496327846505
0.02563233947382867
0.027689333377678555
0.02964125242071171
0.03143420423502139
0.033009382143587174
0.03430769853483425
0.03527538071125291
0.035869693842035436
0.036063637042220015
0.03584863602736195
0.03523492334390565
0.034249583540855236
0.03293294551883558
0.03133405393543821
0.029506214307897863
0.027503181536831664
0.02537632448870617
0.02317310370215091
0.020936448888389192
0.018704889383405546
0.016500510274857275
0.014311310172468271
0.012158526575542629
0.010108363367987426
0.00821696997094763
0.00652761046597702
0.005065451129469636
0.0038357864068399704
0.0028301597630693773
0.0020359539703538776
0.0014473012886558735
0.0010368630438337934
0.0003954523048497653
0.0005915040424819461
0.0008853058466524481
0.0013053564387374371
0.001873970260642258
0.002613627737261956
0.003540951851366144
0.0046622769605442795
0.005971246110083956
0.0074491057456279285
0.009063582184766827
0.010765221929451518
0.01253021651820636
0.014368286536066576
0.01627244099690057
0.01822738385962164
0.02021720238255734
0.022222516549956394
0.02421736057300747
0.026166623515394366
0.02802484645436505
0.029737099741752097
0.031242210532519663
0.03247804485122694
0.03338803403857061
0.03392768676597087
0.034069770293764456
0.03380710710950851
0.03315260457564758
0.03213670175755509
0.03080308096287848
0.029203668833140458
0.027393878663445136
0.025428869513978502
0.02336086112979157
0.021237705335239776
0.019102297892720888
0.016992510136311905
0.014921091682814549
0.012844914865625329
0.010782281857217088
0.008829897162797612
0.007062692283744212
0.005523236389298511
0.0042227432552742585
0.00315118035032613
0.0022905102822891044
0.0016236187068886959
0.0011399672758569887
0.0008092007029605692
0.000315531775768594
0.00047118861805207413
0.0007062799150865847
0.0010470418551145996
0.0015158600697790727
0.0021373200751203737
0.002934397232766778
0.003923588794227249
0.005106759463397828
0.006462704827829544
0.007943107079258873
0.009476791063369839
0.011041919097487479
0.01266904595788454
0.014359127912533798
0.016099808000784158
0.01787760233973101
0.0196750767833912
0.021467893404839122
0.02322250413865781
0.024895263311178924
0.02643362031153602
0.027779481836493668
0.02887453429455784
0.029666534368291825
0.030115381171264156
0.030197741105864883
0.029909256570546588
0.029264159920176853
0.02829258818748095
0.02703646797212882
0.025544930394602674
0.023870179478083838
0.0220641961961088
0.02017642691575071
0.018252431014257886
0.016333000933528123
0.014453781756678323
0.012622688070498303
0.010786377332345096
0.008961398896493158
0.007248777409592351
0.005722019737752895
0.004416157104698142
0.0033325910226990577
0.0024538875114689823
0.0017587270853892032
0.0012290444487235
0.0008519858536525989
0.0005980399292924718
0.0002413151522199187
0.0003599432758489961
0.0005393355456124928
0.0008005865947178176
0.0011623349838498812
0.0016461448793357422
0.002274694397819414
0.0030679708931224247
0.004033910789665761
0.005156385172512993
0.006388595743046313
0.007659148101237579
0.008949829272997695
0.010297628769233107
0.011706759840932604
0.013166366743826242
0.01466350851819984
0.016180972789275036
0.017695085737591928
0.019174215110744464
0.020578554289931782
0.021861613600711382
0.02297347828404604
0.02386545080751482
0.02449522182811415
0.024831617551931858
0.02485791319701543
0.024573156376233602
0.023991387819724947
0.02313925427671542
0.02205266663867526
0.02077326479434354
0.019345333350939825
0.017813318891291775
0.016219996901573046
0.01460515090805504
0.013004584807307536
0.011449316080785811
0.00994441188593129
0.008438728362222968
0.006946827628417077
0.0055588000306739235
0.004337142839174963
0.0033078467250310137
0.002466623162780104
0.0017940424817869188
0.0012693374050860105
0.0008755728786822305
0.0005995207763961967
0.0004155623440974919
0.00017586945139689398
0.00026252853109718944
0.0003929806885227671
0.0005823801909543137
0.0008441197111400739
0.0011940530553484288
0.0016499735881785205
0.002229235702588744
0.0029412630539021618
0.0037767945250670953
0.004701067718175439
0.005658142081928526
0.006634732657997059
0.007662505141123548
0.008745297272885998
0.00987343679937695
0.011034561328176611
0.012212241662165384
0.013384741058481123
0.014524424528229071
0.015598122869849835
0.016568744440506836
0.017398027887146103
0.018050082935203722
0.01849505433562904
0.018712238070626608
0.01869199274903161
0.01843624456301586
0.017957540196249188
0.017277193378885176
0.016422876700484295
0.015426300866730218
0.014321162122117037
0.013141496306856959
0.01192039224506953
0.010688878961233248
0.009474954678342315
0.008302741374513723
0.007175259951181891
0.006050759982775813
0.004941066196921934
0.0039170074740513885
0.0030258200262289763
0.002284693971579393
0.0016868886722262034
0.0012147630362628152
0.000850791733924251
0.0005809083685396281
0.00039356727848140183
0.0002692365640717062
0.00012143870725468849
0.00018196951149266927
0.00027221650535342635
0.0004020398304665621
0.0005799630747640349
0.0008160124333646883
0.001121719707727377
0.0015088542468834946
0.0019846583345683607
0.0025446974192328653
0.0031679259267788627
0.003818852738404268
0.004489006158985698
0.005199022199225131
0.005950545451322782
0.006735471505575028
0.007543191618610754
0.008359912279156518
0.009168178659434902
0.009946833766722864
0.010671674682346376
0.01131679030377162
0.011856569180136478
0.012268018816398015
0.012533023528713974
0.012640085474427406
0.012585244219720624
0.012372078820036724
0.012010869453302103
0.011517272902337975
0.010910766449066885
0.010213173898739075
0.009447449685507873
0.008636679518834053
0.007803249970476902
0.006968118246167317
0.0061500922022355315
0.005365197263615653
0.004615049350920473
0.0038712684567110025
0.003142041803328746
0.00247454001145602
0.0018990665513250152
0.0014251570765605388
0.0010463415333928998
0.0007495171476267161
0.0005222588631161538
0.00035469787146141124
0.00023854677454088332
0.0001610990723598238
7.902546571642175e-05
0.00011927330993585077
0.00017841963125039291
0.00026228901581875876
0.0003757775302074894
0.0005244252301845381
0.0007145070003702793
0.0009524079236724611
0.0012421061649143118
0.0015814312899170592
0.001959478415859735
0.0023575020030857166
0.0027704923165124333
0.0032084208525680036
0.0036707628540521443
0.0041513879062584115
0.004642491438407201
0.005134348451447837
0.005615231670566514
0.00607155800118706
0.006488431669863445
0.006850522095655297
0.007143255515416138
0.0073541417271904405
0.007473977336512765
0.007497728847544932
0.007424926318404059
0.007259503032861044
0.007009205559191583
0.006684700877745679
0.006298594622349243
0.005864528424965438
0.005396429513726845
0.004907936529044369
0.004411946214612363
0.003920244716167898
0.003443165520626829
0.002989299990453494
0.0025594439301083725
0.0021385886476892636
0.0017310699210668554
0.0013612654863635542
0.001044313106674751
0.000784192607177493
0.0005765629319371874
0.00041384199888713704
0.0002890440318945305
0.00019663354139658404
0.0001318907436485216
8.802343879201e-05
4.826020463207165e-05
7.356349936484837e-05
0.00011000373791306672
0.00016063204319605832
0.00022797439857288675
0.000314672060462418
0.0004235161857643759
0.0005571557305954498
0.0007170305201394351
0.0009018704760827711
0.0011067393825253818
0.0013234278240528005
0.0015489960471627678
0.0017862321817675576
0.002033485522617406
0.0022867125075990958
0.0025411054342539536
0.0027910502725127617
0.0030301384401130445
0.0032512912358332413
0.0034470300091634875
0.003609932854288351
0.0037332053213257957
0.0038113301701196292
0.0038406502510984824
0.003819776628564577
0.003749760531513417
0.0036339407974715974
0.003477577928458952
0.0032872887691806556
0.0030704578477205734
0.002834667559457941
0.002587259910649117
0.0023350284827370073
0.002084020493756054
0.0018394415023789965
0.0016055988917276914
0.0013858783938491836
0.0011806352148746929
0.0009844299223052554
0.0007986813754183107
0.0006318270897188422
0.0004888879253969294
0.0003708433128223559
0.0002756700877753358
0.00020020197340325994
0.00014152970091567494
9.730739940993828e-05
6.54892977688748e-05
4.3265441889906265e-05
2.761171237350017e-05
4.2527783507735655e-05
6.339996682707548e-05
9.153554702830712e-05
0.00012803449132267486
0.00017389013240158964
0.00022995879953486133
0.0002968596280182409
0.0003747102446552495
0.0004628036383318773
0.000559445961128734
0.0006620827494249089
0.0007690449238358257
0.0008796333437031404
0.0009921322820285593
0.0011042831764240895
0.001213638618511266
0.0013175701337641964
0.0014132735359939236
0.0014978187332186947
0.0015682451616449724
0.0016217443501993934
0.0016558892119456978
0.0016689054662054848
0.0016599167180390314
0.0016291141706344873
0.0015777946400369104
0.0015082630563347619
0.001423606033857038
0.001327378320552271
0.0012232714663181282
0.0011148198705770265
0.0010051790249896095
0.0008970030140672125
0.0007924037906070136
0.0006929822893858875
0.0005998892709551576
0.000513900337128118
0.00043515188418730117
0.00036275760351262953
0.00029681533471809674
0.00023844223294158242
0.00018817413524200018
0.00014588434815994636
0.00011093755655942313
8.249045574711963e-05
5.973726759784724e-05
4.1974099998709124e-05
2.855852877635976e-05
1.8714769414962892e-05
)
;

boundaryField
{
    "(inlet|outlet)"
    {
        type            zeroGradient;
    }
        "(front|back)"
        {
            type            empty;
        }
    "(top|hills)"
    {
     	type            zeroGradient;
    }
}

