/*--------------------------------*- C++ -*----------------------------------*\
| =========                 |                                                 |
| \\      /  F ield         | OpenFOAM: The Open Source CFD Toolbox           |
|  \\    /   O peration     | Version:  v1806                                 |
|   \\  /    A nd           | Web:      www.OpenFOAM.com                      |
|    \\/     M anipulation  |                                                 |
\*---------------------------------------------------------------------------*/
FoamFile
{
version     2.0;
format      ascii;
class       volScalarField;
location    "0";
object      nutCoeffs9;
}
// * * * * * * * * * * * * * * * * * * * * * * * * * * * * * * * * * * * * * //
dimensions      [0 0 0 0 0 0 0];

internalField   nonuniform List<scalar> 
1000
(
0.13171145383763505
0.14050454660462333
0.14243532182599264
0.12671952940353387
0.09256985936198309
0.046913459201462
-0.0025094165218535777
-0.048511564139721325
-0.08499110877077344
-0.10978209651847312
-0.12560210770899805
-0.13704569286860885
-0.14672219678553183
-0.1543973641853057
-0.15947705013052435
-0.16151807825330994
-0.1601655093996136
-0.15517382682864142
-0.14642285655089887
-0.13392733740031695
-0.11784133865492824
-0.09845718003373838
-0.07620085608043985
-0.05162076997243903
-0.025372657421829745
0.0018013885949316928
0.02910275446976145
0.055707045864229886
0.08080388915137564
0.10363667149296099
0.12354071266776599
0.1399795593512616
0.15257028993582653
0.1611016432449005
0.1655393258227884
0.16601912169047806
0.16283007432272142
0.15638809192003564
0.14734240136857085
0.13630651506517333
0.1212207565491221
0.0977232304105531
0.06299257921450256
0.018730637893139373
-0.029615485920766096
-0.07551891159662033
-0.11168766383828697
-0.13084850389572839
-0.1321993999298534
-0.125436764180313
0.12161747078107336
0.1334814221015432
0.1453913746568078
0.14482593256790696
0.12536492150170128
0.08984979062588667
0.044020044815608304
-0.005424283107325622
-0.05095364483271887
-0.08696116418586582
-0.11241535076116466
-0.12953497050487753
-0.14195378108454312
-0.15174851228069708
-0.1587956678210674
-0.16257618535250715
-0.1626705111714631
-0.1587836962526755
-0.1507640310856923
-0.13861500550632658
-0.12250077776806058
-0.10274489460535481
-0.07982422536843946
-0.05435451704562531
-0.027071296764577056
0.001196244792377579
0.029560502470266842
0.0571115783618629
0.08296294523717758
0.10629501756089936
0.12639728963309993
0.14270743906815514
0.15483750552580736
0.16259225363737925
0.16597262353330594
0.16516624181909687
0.1605264132546477
0.1525412776473997
0.14136289314115918
0.12517968445940403
0.10078700376895643
0.06611393455312439
0.021944845864510305
-0.026670698196317042
-0.07277762512196216
-0.1100734355140884
-0.13281889408032074
-0.1373469680132225
-0.12848019514059467
-0.11818121387107923
0.10137963127864978
0.11479871309031534
0.1347551553085525
0.1486893765652142
0.1460170143810007
0.12557328058078782
0.09034687532216916
0.04527881046074052
-0.002368636010319594
-0.04484522421267171
-0.07741675849459177
-0.09910131254156157
-0.11376773986992994
-0.12551743639297344
-0.13468374923413545
-0.14069466914360443
-0.14308087482561224
-0.14150336244353048
-0.13577500992464553
-0.1258751858127666
-0.11195666206039688
-0.09434480817390684
-0.07353012163532198
-0.05015122856255641
-0.02497167136454949
0.001150500121568015
0.027302319006144073
0.05255683887955858
0.07602050959186425
0.09688003936880359
0.11444472398655553
0.1281847316742252
0.13775667014581122
0.14301865193466326
0.14403096476634197
0.14104282729215004
0.13446735415376665
0.12484704643815081
0.11185239333862473
0.091508526259993
0.06015738155811081
0.018750552345437592
-0.02833044485503517
-0.07379976963156423
-0.11069274628356848
-0.13410148678306102
-0.14063776046445395
-0.13042356132569885
-0.1127909629177334
-0.10031046184442714
0.07246226109440279
0.08577886025711183
0.11090312746396662
0.13664966041188378
0.15013676572472892
0.14699890441853442
0.1274565945755298
0.09403998490324375
0.05228466836467504
0.010249314621582734
-0.02477793145364432
-0.048749462277443374
-0.06483156939121767
-0.07818235877845589
-0.089420909526877
-0.09795229958619316
-0.10327880740024502
-0.10502878419157527
-0.10298020572327546
-0.09707704773729106
-0.08743802575534926
-0.0743563399824755
-0.058291689504375646
-0.03985178531723695
-0.0197670585180525
0.0011427007900031464
0.022009632061380662
0.0419601677458275
0.060163403683810526
0.07587628727497554
0.08848497150789866
0.09753993283586213
0.10277861549110072
0.1041369894698152
0.1017463883952653
0.09591695567200594
0.0871095960717523
0.07589878379528564
0.061644351737763864
0.039141140419489545
0.005156031874788506
-0.036455076903671044
-0.07872043293358993
-0.11377410856419483
-0.13601420401267753
-0.14261581771877974
-0.13273792853615657
-0.1097937140893574
-0.08597637957527725
-0.07293666328162192
0.03733603196240889
0.048986489542033676
0.07592065004274705
0.10928732575689296
0.13579097348752528
0.14908486930002482
0.14719144591758113
0.13026507678009444
0.1012764613704606
0.06681825988134471
0.03488482947116984
0.011526544842609107
-0.0049251271779950445
-0.01931379719193141
-0.032267826887617514
-0.043200858445180144
-0.05161182890015304
-0.057113455790656575
-0.059455956087806926
-0.05854422050323527
-0.05444726911696465
-0.047398900521064984
-0.037789511058273245
-0.026148362045097132
-0.013117836262540627
0.0005794767272416498
0.014180597098971947
0.026923756698783774
0.038093458869448274
0.047062760487960265
0.05333133881133781
0.056556299077760906
0.05657184840672773
0.05339706839347522
0.047230049955725134
0.038429257902275187
0.02748362766257425
0.014974890976014175
0.0002264408195385627
-0.021851041844418287
-0.053246653916618654
-0.08813979556412173
-0.11865765200423446
-0.13804903977260857
-0.14296672748608616
-0.132790554542061
-0.1088962190763648
-0.07700548099691741
-0.05031015067849934
-0.038364839053703734
-0.0007692875767825546
0.007957553391588807
0.033375239629237885
0.06941960941290493
0.10398578813140673
0.13005006016816606
0.14431582500654702
0.14511757516419058
0.13276077074600165
0.11116789276609647
0.08713840908300183
0.06715126538038735
0.05145180794331813
0.03682216344975894
0.022906006092823027
0.01025307530477472
-0.0006572502457380336
-0.00944252795445873
-0.015839715887593836
-0.019721587045374626
-0.021105901764737645
-0.02015626894849738
-0.017174420354966014
-0.01258409481546249
-0.0069071001285533375
-0.0007332644200180141
0.005315159748114905
0.01062119003155289
0.014612752985473824
0.016800151279010272
0.0168092905427142
0.014407929548384128
0.00952238054261842
0.0022426455784969744
-0.007185001519276324
-0.018376929933645918
-0.03084189936577423
-0.04401752112094583
-0.05833341785988925
-0.07742853115094633
-0.10152678696133256
-0.12427012762369719
-0.13870078622463256
-0.1404469469703554
-0.12869056699678783
-0.10466715447200399
-0.0712825216749284
-0.03534078668232277
-0.009272791886780544
0.00014517995583784502
-0.03821291846617325
-0.03319896001851672
-0.012113061292977104
0.021747358582520665
0.05860943833509596
0.09190448390619223
0.11792458633410724
0.13398419306758177
0.1382300775887652
0.13153322194037112
0.11814655063587132
0.10347450812643895
0.08961207515640648
0.07577151143668406
0.0620500604131505
0.048937455620664844
0.03686863358037156
0.02619935208802183
0.017186083206435703
0.009971139897993938
0.004574886779839514
0.0008951937670467308
-0.0012850676780883808
-0.002283673239628016
-0.0024981422330454636
-0.0023797230376149735
-0.002403687214986218
-0.0030372098523820724
-0.00470695895722994
-0.007767851360089123
-0.012475529445226697
-0.018965071250630558
-0.02723730567293387
-0.03715556715496286
-0.048453289397883854
-0.06075180887766383
-0.07358773811517169
-0.08644682142217312
-0.09931708213993053
-0.11348890121266812
-0.12733810616389604
-0.13539280891800815
-0.13301003057740854
-0.11876500506270175
-0.0940765848266929
-0.06138786354327682
-0.024286861923117072
0.010558425103416575
0.032860577482652746
0.03876394473093104
-0.07136687964776355
-0.07029452909294687
-0.055460603353370476
-0.027793413802640665
0.005866927216087493
0.04021030608577516
0.07185372800348279
0.09787702081040969
0.11511984943237462
0.12180794981869261
0.11917995805882914
0.11061328487617833
0.09955655867427969
0.08770330117038143
0.07562197510109367
0.06372179160148969
0.05237175689724577
0.04187917850685194
0.032471495016308465
0.024283637428032634
0.01735164488987569
0.011613111128484904
0.00691449752581917
0.003024089209566562
-0.00034999076575057325
-0.0035380388120664287
-0.006885111089574636
-0.010725474475006498
-0.015357728261252254
-0.021020781207804127
-0.027872993264603733
-0.0359761706970803
-0.045285484335989265
-0.05564767780236792
-0.06680842540143005
-0.07842748215099218
-0.09010234894100239
-0.10139692689896952
-0.11181704202518142
-0.12010811753423199
-0.12315961886073816
-0.1173814707909974
-0.10108725576560558
-0.07561692544798164
-0.04391605046316726
-0.008873174953148827
0.02605333621515093
0.05531122196236987
0.07157566119506474
0.07357639587461619
-0.09706930113977723
-0.09959536059555993
-0.09180647778234424
-0.07289677571856738
-0.04670031925406437
-0.016856530691871964
0.014039472230833456
0.04343190599549981
0.06777689006145246
0.08360765774574525
0.08956103751196565
0.08678615166179876
0.07931737473336954
0.07065963331205521
0.061706496497999766
0.052766078803680436
0.04412071832153615
0.036008064196283586
0.028605232487106842
0.02201799138941213
0.016275735443185845
0.011332523319131727
0.007074282415441035
0.003330481814698417
-0.00011041782625520531
-0.0034835974487258036
-0.007029343612164715
-0.010974623695487807
-0.015515316008432305
-0.020800073055885316
-0.02691645061602827
-0.03388074929532247
-0.04163194108008193
-0.050031773567465715
-0.05887095357726811
-0.06788144962921784
-0.07675464402723044
-0.08516330510297178
-0.09225338231461112
-0.0947610773758731
-0.08879121020968635
-0.07297717318340131
-0.048379673723841575
-0.018289039475079597
0.01374421319484796
0.045074633772599904
0.07297381455612019
0.09358129869476085
0.102737411183924
0.10109679358792396
-0.11303709506987426
-0.11831811194741165
-0.11719893456749689
-0.10785410084991667
-0.09147067682265395
-0.06998090665379197
-0.04502213083078772
-0.0184503900672556
0.006584657946512999
0.026087345985170863
0.037115138972852076
0.03904652670694973
0.035671787561960246
0.031184018516720514
0.026550251819014947
0.021958454246173875
0.017585466756272726
0.013581698935945838
0.010058023832241064
0.007076469773715779
0.004646124605790675
0.0027242886678536305
0.0012227206758596838
1.742847938534978e-05
-0.0010390175858281476
-0.002104291072599121
-0.0033334251997247308
-0.004866893458798837
-0.006820275475594423
-0.009275472382596949
-0.01227397574425999
-0.015812483968815055
-0.0198411186169906
-0.024264808751969635
-0.028948588092182547
-0.033725913947405234
-0.038410537254300534
-0.042810128069106425
-0.04595356240553226
-0.043640810052786465
-0.03204489877214104
-0.011699753113918826
0.014503718726129804
0.04250395536720207
0.0690299986348463
0.09213579896120191
0.11010298053282615
0.12088817898259613
0.12316641360851267
0.11872974803131997
-0.11815919157313377
-0.12499704752509051
-0.12916189016505303
-0.1284589382021137
-0.12206747700383684
-0.11046877084993824
-0.09442012662800152
-0.07500513541180877
-0.05448825548974438
-0.03635035666978405
-0.023888808163546476
-0.01866494734603883
-0.017818068698761836
-0.017658447113623438
-0.017413206198554868
-0.017027006642531154
-0.016440000896075568
-0.015598185056202746
-0.014463279124390091
-0.013019893748050524
-0.011279201838784324
-0.009278466217561078
-0.007076983609539084
-0.004749377044543825
-0.002377601172818646
-4.329554459633909e-05
0.0021791946868909068
0.004227598261332083
0.006055141917118222
0.007632160662762074
0.008946359050355759
0.010002358984006835
0.01081983931946763
0.011431277592409228
0.01187853388828314
0.012208707991934568
0.012469267291718617
0.012703193826222205
0.013719441116664533
0.01939929649635411
0.0327326769582528
0.052083844176691756
0.07400695267071532
0.09484289129115345
0.11222048742574178
0.12504141251916776
0.13255695404097945
0.13428994765025715
0.13107017005409774
0.12510021079847042
-0.11261266330631656
-0.11965099466507287
-0.12702984453083133
-0.13266946567742818
-0.1344883078033922
-0.13194212013392
-0.12514248869851208
-0.11452888044419168
-0.10132304193064759
-0.08782248094297303
-0.0766545928660866
-0.0694643270617623
-0.0647083345316151
-0.060092024765698984
-0.055233844030018214
-0.050211097473443565
-0.04507993167547373
-0.039879838239701926
-0.03463920992353017
-0.02938021103728261
-0.024121805492372007
-0.018880670816729138
-0.013670211575157082
-0.008498468133185427
-0.0033659557079831824
0.0017353175468635756
0.0068215820680279215
0.011914806251301414
0.017038960280614784
0.02221541246117733
0.02745761364357226
0.032766869313026206
0.03812852818528601
0.043509599224867676
0.048857976215837276
0.054102683993321195
0.05915582744857332
0.06391566608998818
0.06880765532737528
0.0763692141607213
0.08827397028527723
0.1027218368483058
0.11688711438608075
0.12833316663581912
0.13582250843082108
0.13898086010995983
0.1377683703351815
0.13280191655933818
0.12625206376749948
0.12019574533852728
-0.09778380600072809
-0.10372265569470018
-0.11198570481794708
-0.12088628733625213
-0.12778591841254297
-0.13157974165076888
-0.13201907585420267
-0.12913012564433904
-0.12322434515072085
-0.11523144814353317
-0.10656278218466819
-0.09835292268307011
-0.090404798799438
-0.08217850084637163
-0.07375544943333508
-0.06533099069335119
-0.05706246990619116
-0.04906780347067508
-0.04142625895735999
-0.034180429583923304
-0.027338412611727654
-0.020876166932129254
-0.014739951954699274
-0.008849467346143343
-0.003102517596441819
0.0026186042126222367
0.008438918109812944
0.01448064748345902
0.020852634370264196
0.027639737767243638
0.034893519990708645
0.04262519649915801
0.05080091547081483
0.05934056528485455
0.06811953132813187
0.0769733885096847
0.08570501694231299
0.09409415440698943
0.10209208988415922
0.11040961649589498
0.11931828720138682
0.12756542553167333
0.1336353578429228
0.13658514784612505
0.1361816158741052
0.13249921807862475
0.12586710818279373
0.11747357987861134
0.1100675733897298
0.10530351556556093
-0.07601885779718835
-0.07981100354617138
-0.08680483909625515
-0.09579515344844228
-0.10414652451874058
-0.11059728838156221
-0.11478795096555955
-0.11656850158020567
-0.1156499973635328
-0.11184142221078158
-0.1053418879103888
-0.09658519367348749
-0.08643955348194013
-0.07591402060498734
-0.065491916647547
-0.05545990668100374
-0.0460515620700393
-0.037440323419901125
-0.02973565892696956
-0.022981823441785943
-0.017158806078575055
-0.012185372179905826
-0.007924690058129272
-0.004192238598212672
-0.0007668480431071796
0.002595563225159574
0.006146174027127551
0.010125777548149764
0.014747808663137607
0.02018238850603294
0.026543514576193746
0.0338800451841558
0.04217094105194484
0.05132518070400667
0.06118593202927498
0.07153824557745381
0.0821200143755061
0.09263473598234705
0.10261802204702276
0.11110767296861371
0.11724379475004507
0.12058259240365808
0.12096808226898453
0.11869922939504413
0.11418857321962057
0.10766798276910579
0.09954066753028608
0.09112285685755404
0.08514698286068766
0.08276324021144327
-0.050257206142660125
-0.051251570269465814
-0.0553617662958161
-0.06181839295377464
-0.0683612389698864
-0.07385831831355423
-0.07800698165744478
-0.08065885554980225
-0.08128156536365275
-0.07906425255482961
-0.07341376769510453
-0.06423600416356962
-0.05300596728767694
-0.041673234899393514
-0.0309669838621382
-0.021231824738192854
-0.01274752370522484
-0.005717447819309191
-0.00026052501623638767
0.0035931657081364654
0.005903177084086688
0.006815438597966412
0.006554982530595944
0.0054140861382255216
0.0037363439814353384
0.0018968963877644181
0.00027987915768581533
-0.0007449308865931262
-0.000845080180430338
0.00025440807801199337
0.002755011525297019
0.006774200348913727
0.012340332956091774
0.019393546680850634
0.02779115428515017
0.037317107131063974
0.0476940332436946
0.05859714672368737
0.06931515975578477
0.07784779681158971
0.08268571651973383
0.0840111951421111
0.08256334193953921
0.07931374021292614
0.07490391301087153
0.06951134615540545
0.06342769205327557
0.057796461849615656
0.05494810116068566
0.05558861514135389
-0.02360654698169065
-0.021616274575739745
-0.021991219199305943
-0.02428920514656202
-0.026813370206684835
-0.028718891954678593
-0.029839530701954976
-0.030124762802514873
-0.029094739400823348
-0.025853496986786764
-0.019591696790027886
-0.01004372328913597
0.0011829973649797744
0.011930383079029648
0.021409008700145202
0.029250991654332557
0.035161030421392625
0.038931101371431694
0.0404516568688412
0.03971868085326701
0.03683616156083019
0.03201327071893867
0.025556160610583564
0.017853894902229245
0.00935912636621261
0.000564317128340137
-0.008025354789185122
-0.01591956253376618
-0.022670006801474806
-0.02789361824070583
-0.031290935613377646
-0.03265808848809571
-0.03189201000906739
-0.028989835591670902
-0.024042951917978214
-0.017227809908582876
-0.008794165383387535
0.000947343626248984
0.011242370500051831
0.019853213658097665
0.025130182771593606
0.027462327721767273
0.027818588711762262
0.027231148264528587
0.026236253986779284
0.0248557714230008
0.023195938345455268
0.022072590433636952
0.023221918025269444
0.027024546689166
0.0010786031217327895
0.005795313016879158
0.009193297863278996
0.0114984664983353
0.013807117803835164
0.016628793403028534
0.01998210332106332
0.02379355436721177
0.02831718319903471
0.03415138687969948
0.04185467197178421
0.05154331966355571
0.061833133577472096
0.07093433110396466
0.07814634204169418
0.08310954078246567
0.08554109333126263
0.08525126645971409
0.08215615801645647
0.07628631307410273
0.0677900376867337
0.05693081970990751
0.04407846738550597
0.029694016294057293
0.014308751556182157
-0.0015013659903099971
-0.01714473974837915
-0.032043466791157056
-0.045661896636728
-0.05753147950681447
-0.06726950614331183
-0.07459219030514043
-0.07932003545846114
-0.08137758624651184
-0.08078834705893294
-0.0776665504226896
-0.07220743714221303
-0.06467692294866158
-0.05571005461434304
-0.0471400701324479
-0.040373124991343656
-0.03519294654253625
-0.030936225377640722
-0.026935675412165433
-0.022942195237688045
-0.01910234077339864
-0.01549246999115706
-0.011664944989722559
-0.006519937233840862
0.00010853697325361428
0.021559043991489935
0.028395704453341723
0.03490940555767006
0.04118821144651934
0.04779513276898914
0.05493490111369445
0.06250416537027202
0.07032496931333862
0.07838662102856211
0.08685250157664852
0.09583564254715343
0.10517060110414662
0.11386257026239824
0.1207424967480876
0.12527107290913164
0.12712154901143324
0.12604552275530806
0.12188912572088874
0.11460580411102943
0.10426464325023749
0.09105311912628593
0.07527378689648531
0.057334735483536126
0.03773388804292648
0.017037930122025192
-0.004143131989876523
-0.02518381707601088
-0.04547183033243932
-0.06443504251078074
-0.08156497530565474
-0.09643468320608627
-0.10871123177399475
-0.11816062537745999
-0.12464826813705934
-0.12813495777202225
-0.12867029737403465
-0.12638543928176688
-0.12148567961191514
-0.11441091857630509
-0.1063055238679561
-0.0981481278492535
-0.09004618948110833
-0.08184932877782479
-0.07339454182415235
-0.06474574489742449
-0.05618227375065317
-0.04792432154208571
-0.03985828173096833
-0.03145909618794983
-0.022704640103692494
0.03646024615111099
0.044610158349922394
0.05313423131960028
0.06202286400419888
0.07143449237162314
0.08134450331235783
0.09156849188631422
0.10186419230017114
0.11202285782173929
0.12186110783110649
0.1311344393379825
0.13947245282159493
0.14625295074860695
0.15085539195655318
0.15289548592834695
0.15209446227759887
0.14825081955999686
0.14125524856620225
0.13110192688028513
0.1178949733783799
0.10184936135081529
0.08328596380637963
0.06262093543878604
0.040349679768149065
0.017026674266141004
-0.006757678241544927
-0.030402207319186535
-0.05331980772027506
-0.07496031025295218
-0.09483063493569978
-0.11250949196831815
-0.12765775024542741
-0.1400226489341793
-0.1494383512766347
-0.15582299990191847
-0.1591739817968226
-0.15956325119096554
-0.15713269903290505
-0.15214047450963955
-0.14511914223570496
-0.13663236268647228
-0.12701346848975711
-0.11650942812134067
-0.10534517650678075
-0.09381064076090265
-0.08226385518910662
-0.07101905534025597
-0.06021816775522877
-0.04978405434845193
-0.03980741885460092
0.04536511447837585
0.05398432630096971
0.06326709043864175
0.07312403201213888
0.08346430249958865
0.09412834731833995
0.10489507681851343
0.11550353747696784
0.12566635442868726
0.13506544514105068
0.14334464910228414
0.15011936234507298
0.15501100504584966
0.1576878949897193
0.15786763099849288
0.15532446070193712
0.14990545653793605
0.14154369552309778
0.13026718085668781
0.11620296701252665
0.09957551816832536
0.08069987898211917
0.059969829604039515
0.037842000908668495
0.014817359910284135
-0.00857904935865177
-0.031818540717948415
-0.054388849158748725
-0.07581086528346373
-0.09565415165935368
-0.11354708750299145
-0.12918407382128913
-0.14232856329528762
-0.1528131852627992
-0.16053778968386678
-0.16546664349953502
-0.16762576533229517
-0.16710087442388766
-0.16403564321024452
-0.15864026997395966
-0.15120420779597954
-0.1420669547792876
-0.13158745829999483
-0.1201313011243875
-0.108072426525986
-0.09578929582386524
-0.08363781330351741
-0.07191238956523976
-0.06082195137349066
-0.05055701435578228
)
;

boundaryField
{
    "(inlet|outlet)"
    {
        type            zeroGradient;
    }
        "(front|back)"
        {
            type            empty;
        }
    "(top|hills)"
    {
     	type            zeroGradient;
    }
}

