/*--------------------------------*- C++ -*----------------------------------*\
| =========                 |                                                 |
| \\      /  F ield         | OpenFOAM: The Open Source CFD Toolbox           |
|  \\    /   O peration     | Version:  v1806                                 |
|   \\  /    A nd           | Web:      www.OpenFOAM.com                      |
|    \\/     M anipulation  |                                                 |
\*---------------------------------------------------------------------------*/
FoamFile
{
version     2.0;
format      ascii;
class       volScalarField;
location    "0";
object      nutCoeffs46;
}
// * * * * * * * * * * * * * * * * * * * * * * * * * * * * * * * * * * * * * //
dimensions      [0 0 0 0 0 0 0];

internalField   nonuniform List<scalar> 
1000
(
0.0022849180614964025
0.0027737743870489264
0.0028897022995629205
0.002034841818076761
0.0007932476821305418
0.00010325054947264126
-1.5802225651354543e-08
-0.00011416574970214207
-0.0006139323027645704
-0.0013231057623100935
-0.0019814849672785784
-0.0025739266865496754
-0.0031585478635863654
-0.0036806086788119
-0.004055968575761407
-0.004213698097918948
-0.004108724275237636
-0.0037364176242579974
-0.003139255224083109
-0.00240219193319769
-0.0016364133056911499
-0.0009544258166823825
-0.00044246564050666297
-0.00013755406668185545
-1.6334199934744745e-05
5.845507557671313e-09
2.4649169199991133e-05
0.00017287428046583981
0.0005275902882741906
0.0011131158550139293
0.0018855163685399317
0.002742798265330092
0.003551484426666325
0.00418119007474499
0.004536318575261057
0.004575876934003676
0.004317216848880404
0.0038248203613289273
0.003198771595928499
0.002532502268939837
0.0017812749909091137
0.0009332402142011754
0.00024995865111453614
6.571396983290743e-06
-2.597506173218929e-05
-0.000430692358500051
-0.0013932069131957906
-0.0022403005423571433
-0.002310406786152988
-0.0019736699403765457
0.001798820805610341
0.0023782772133691663
0.0030733776471696863
0.0030376588717164286
0.0019702806818764065
0.0007253560007910332
8.530047333399847e-05
-1.595978531905308e-07
-0.00013228961929673199
-0.000657621548755422
-0.0014206165169605193
-0.0021735072424817516
-0.002860493035283601
-0.003494405707503335
-0.0040042017415539794
-0.004297053763387491
-0.004304537485425847
-0.0040032961823187945
-0.003426835228857368
-0.0026633653151560167
-0.0018383006393681868
-0.0010846278533402588
-0.0005086325368562419
-0.00016058572021003398
-1.9839338128067552e-05
1.7118282158201997e-09
2.5830656004299803e-05
0.00018628268458617116
0.0005710215310566773
0.0012009881548646296
0.0020193578365149743
0.002906295958397871
0.003712175484553163
0.0042983279926039186
0.00457203321546734
0.004505716485158549
0.004136561697070842
0.0035494587944410578
0.002824920788883768
0.0019615598222753037
0.0010237964129988044
0.0002889874684735377
1.0568116798082925e-05
-1.8971564859874463e-05
-0.00038547271150665875
-0.0013336674891730905
-0.002343039333162527
-0.002590939248666593
-0.0021208432078286964
-0.0016506132965908504
0.001041962579064986
0.0015129029118677395
0.002447012381130719
0.0032873036470543147
0.003113224162437411
0.001980120959617565
0.0007374615991376777
9.282928948426341e-05
-1.3289082044481123e-08
-9.018796738272871e-05
-0.00046398607757459453
-0.0009732809421760603
-0.0014725070786302725
-0.001977480372117058
-0.002443124463638177
-0.0027850495582591203
-0.0029291712344321668
-0.0028333503508543812
-0.0025029923924874894
-0.0019944372366497644
-0.001403297737642934
-0.0008397577438039449
-0.00039755374890308194
-0.00012613764818950206
-1.5571943974165217e-05
1.5228600953656514e-09
2.035160243672078e-05
0.00014517362049764818
0.0004393314861231367
0.0009092910571878528
0.0014989506273081635
0.0021062450418595532
0.002614194577062094
0.0029253513894890878
0.0029879106704231288
0.0028057761241211078
0.0024313673404363794
0.0019459640712570332
0.0013993805835792103
0.0007662750468966558
0.00021770418313764344
6.5923794439899366e-06
-2.273841466095928e-05
-0.00040194350794815975
-0.0013563053886871067
-0.0024115750315011905
-0.0027816714048437786
-0.002218544602838296
-0.0014349042204695218
-0.0010093428012242162
0.0003804833393475518
0.000631161957489206
0.0013640534245095014
0.002551676831058917
0.0033842401061659434
0.0031764519772696613
0.0020705557672654005
0.0008316443707385945
0.00014292989447079574
1.076674616734401e-06
-1.521230910734329e-05
-0.00011585358812349693
-0.00027249566918514305
-0.0004778882000941024
-0.0007150184506671035
-0.0009398183245157293
-0.001101624644472319
-0.0011585772981470516
-0.00109209712861727
-0.0009148495544168597
-0.0006684994120419845
-0.00041110618763616155
-0.00019807055969736068
-6.329120237788004e-05
-7.723713285894983e-06
1.4920988061564622e-09
1.0661991877274376e-05
7.387740756038844e-05
0.00021776957028565576
0.0004368357935105129
0.0006928010642394787
0.0009279986760560996
0.0010856961288151052
0.0011293148919151541
0.0010533119398479078
0.0008824419759987152
0.0006609947342666948
0.00043722446036396
0.0002342501455931546
5.996535725804277e-05
1.370713785419782e-07
-4.844779950435055e-05
-0.0004878231673507481
-0.0014727543843880224
-0.0025162442345739388
-0.002900701831585015
-0.002338757039528184
-0.0013235258554447947
-0.0006355320539475849
-0.00038800531415644887
5.204565505374903e-05
0.0001175517110010762
0.00043760245902388383
0.0013052971715150448
0.002503875354112829
0.0033136047702515947
0.0031889500348446756
0.0022104668149993383
0.0010387847270098697
0.00029832213874290584
4.2453139525223055e-05
1.5314309946985056e-06
-1.1946820770924462e-07
-7.204485972683109e-06
-3.359766960952239e-05
-8.06263742897055e-05
-0.0001374826031308912
-0.00018630105620096724
-0.00021017744180025304
-0.00020065596912004688
-0.00016140920775664736
-0.0001064890133760216
-5.396520341638516e-05
-1.787859837421912e-05
-2.257286151315956e-06
1.9458438942601397e-10
2.85156682753686e-06
1.9516726313354086e-05
5.52778603786438e-05
0.00010423946938283633
0.00015168668441916617
0.0001809018246162451
0.0001810510745918318
0.00015224822642107892
0.00010535501537200038
5.67526302362444e-05
2.075975236948487e-05
3.3580797638181034e-06
1.161085373214062e-11
-1.0433173896052079e-05
-0.00015096524082789327
-0.0006847248925768061
-0.0016706568311395944
-0.002630874736034918
-0.0029221663059809115
-0.002341539851788264
-0.0012913334573680963
-0.00045663049743188135
-0.0001273405889397128
-5.646770560247398e-05
-4.5526698489474383e-10
5.03893415857953e-07
3.717690037740907e-05
0.00033453880204231
0.0011244029163019042
0.0021995390279994417
0.0030056739635371953
0.003056047068511538
0.0023399646425105785
0.0013738462116434239
0.0006616508576956168
0.0003028046934630883
0.00013620778156335525
4.992613013201473e-05
1.2018440443854103e-05
1.0778602134708754e-06
-2.839175714131943e-10
-8.419083903639974e-07
-3.974130851654576e-06
-7.670533700009096e-06
-9.401815779033454e-06
-8.18899175333799e-06
-5.065779299523398e-06
-1.9928102371358996e-06
-3.2952415524399095e-07
-3.942592006692272e-10
1.5015816956323571e-07
1.1981730241050452e-06
3.1202984047972953e-06
4.741760092117002e-06
4.7495028393637446e-06
2.9909195302756537e-06
8.634488184517029e-07
1.127929441637101e-08
-3.7092029191943816e-07
-6.206101561710433e-06
-2.9337516530054064e-05
-8.528580319846983e-05
-0.00019849623324687902
-0.0004641977828737255
-0.0010465064914277108
-0.0019191116111799357
-0.002668312978694466
-0.0027703644710093457
-0.00213127820133201
-0.0011466509949226936
-0.000362200599180217
-4.4139624869088424e-05
-7.973179445730433e-07
3.0599898073848387e-12
-5.579954055511552e-05
-3.659092918015201e-05
-1.7773041066272402e-06
1.0285361163567496e-05
0.0002013273042570445
0.0007762651725120814
0.0016398838331956687
0.0024052526126039095
0.002641238720359149
0.002275654756740408
0.001649161319198559
0.0011078988507897307
0.0007196139990582967
0.0004350286414475268
0.00023890576293426863
0.00011719906762549762
5.011539138969668e-05
1.798339377490034e-05
5.076106558421036e-06
9.913669325250781e-07
9.575050024477194e-08
7.173831125632174e-10
-2.1221593979119172e-09
-1.1909729246203978e-08
-1.5590192747926166e-08
-1.3476566070473804e-08
-1.3887813013082927e-08
-2.801717869210582e-08
-1.042848532545389e-07
-4.6870838173684653e-07
-1.941676868098758e-06
-6.821241662818563e-06
-2.0206562302908804e-05
-5.1294604396841996e-05
-0.00011375481732019089
-0.0002242216997995546
-0.0003984890227773611
-0.0006460216724636932
-0.0009796520587419476
-0.0014617064848831533
-0.0020647865359147504
-0.0024819143792347157
-0.0023531693327967294
-0.0016751954115772608
-0.0008326157650316253
-0.00023133830926052584
-1.4325645871877227e-05
1.1770568274090378e-06
3.548342835083864e-05
5.824838613828183e-05
-0.0003634880402393525
-0.00034734782016713247
-0.00017059007880045586
-2.1469685387137575e-05
2.0194453342063926e-07
6.501478595124065e-05
0.00037097779620794683
0.0009376531681506365
0.0015256349834917885
0.0018072860674984267
0.0016928157254515114
0.0013533865907249475
0.0009867556650928026
0.0006746023066434567
0.0004324581123748415
0.00025874021444909583
0.00014364530302618842
7.345045022151247e-05
3.423787903184046e-05
1.4319940708047362e-05
5.2242259624220094e-06
1.5661946847794286e-06
3.305840353496927e-07
2.7655645247182884e-08
-4.28716065028698e-11
-4.4288174371592886e-08
-3.263870023922074e-07
-1.2338135657210606e-06
-3.6222709825556176e-06
-9.288520753991063e-06
-2.1654633089349285e-05
-4.656341298297025e-05
-9.287034328480389e-05
-0.00017232216302699366
-0.00029819043471630255
-0.000482397243729944
-0.0007314899086710401
-0.0010424959543672064
-0.001398054166503866
-0.001732674886927086
-0.0018681210267478007
-0.0016173299939930047
-0.001032973595770451
-0.0004323714860615527
-8.469735077170397e-05
-6.986137576837039e-07
1.7684387886698423e-05
0.00016921535120631597
0.00036668750019676653
0.00039830479119749715
-0.0009146305611758813
-0.000987909871528243
-0.0007737844130359622
-0.00038736908581310476
-0.00010184965178826879
-4.7896589123218675e-06
2.7672751716243505e-06
8.192692714576077e-05
0.0003113471625476065
0.0005844376297437404
0.0007183851527357259
0.0006536590718251095
0.0004990051113339616
0.00035278827108662844
0.00023495931517213562
0.0001469144336196995
8.588705739523597e-05
4.668736061905127e-05
2.3406498244716443e-05
1.0674144866796188e-05
4.31143522620421e-06
1.4553916005390017e-06
3.5403580037320073e-07
3.694206770427226e-08
-1.3462247770047983e-12
-4.227502678639758e-08
-3.4733161825353154e-07
-1.3218096356962421e-06
-3.73492492464573e-06
-8.99900682102771e-06
-1.950084233450192e-05
-3.889188737486392e-05
-7.215725122425518e-05
-0.00012523845322200862
-0.00020403431363572546
-0.0003127903346452245
-0.0004521827446388572
-0.0006176714429439723
-0.0007851396199172792
-0.0008509224252588912
-0.0007000191584891025
-0.00038865218178406135
-0.00011323711741763834
-6.117481883419046e-06
2.596328552602491e-06
9.157915256127114e-05
0.00038859852345410486
0.0008195344300386757
0.001084390874086368
0.001033266013884691
-0.0014443184673717045
-0.0016563560275634098
-0.0016097965445679358
-0.0012546135906806796
-0.0007653246080886563
-0.00034271940436051394
-9.125951092732011e-05
-6.2808244730286215e-06
2.854957573355105e-07
1.7753733411364864e-05
5.1127348813019586e-05
5.953155473846136e-05
4.539150881242449e-05
3.0324680856838268e-05
1.8715693903610396e-05
1.0587789413012056e-05
5.438281696360625e-06
2.5053147645490478e-06
1.0175083479781711e-06
3.5436430405501384e-07
1.0029344731851318e-07
2.0218986003828148e-08
1.8280234735896212e-09
5.29393361735978e-15
-1.121679272776336e-09
-9.317886973314717e-09
-3.704009933447873e-08
-1.1528041138421868e-07
-3.17253008645779e-07
-7.980095891085487e-07
-1.8490803443856686e-06
-3.953668883135818e-06
-7.810852927331295e-06
-1.4286656997375039e-05
-2.4259517577716515e-05
-3.8361111542140956e-05
-5.666973023335968e-05
-7.84584241783621e-05
-9.704151164030325e-05
-8.311480874402382e-05
-3.290612264490373e-05
-1.6015116134324706e-06
3.0509711881159954e-06
7.678706014081665e-05
0.0003289376568115511
0.0007821412995419267
0.0013347416940804433
0.001766654022984562
0.0018684302379556152
0.001673703939773597
-0.0016496907254799325
-0.0019529866060075075
-0.0021547811896135134
-0.0021197907068947887
-0.0018188626499340082
-0.0013480890010795468
-0.0008417705656102586
-0.0004219616660082106
-0.00016177399515575054
-4.8031486716304875e-05
-1.3632749312837758e-05
-6.5024991986678e-06
-5.6569440993646544e-06
-5.506270301643934e-06
-5.2800280321987346e-06
-4.936451976067823e-06
-4.443298710556747e-06
-3.7950910999867048e-06
-3.0255219145814794e-06
-2.2071015728220376e-06
-1.4349445032895728e-06
-7.987825568209093e-07
-3.544415028426614e-07
-1.0712971423236581e-07
-1.3440549322353055e-08
-8.115767940319793e-14
1.0348754730799756e-08
7.555811797705651e-08
2.2201022607341434e-07
4.445724151350784e-07
7.160427833825094e-07
1.0007078621593442e-06
1.2666669350713823e-06
1.493771995769309e-06
1.676055992211967e-06
1.8197390685648642e-06
1.9387544326920148e-06
2.049928785366755e-06
2.582315250941611e-06
7.300589716907343e-06
3.507071121853356e-05
0.00014128924120670571
0.0004053382292062452
0.0008531283125267652
0.001413241728065296
0.0019550668550307893
0.0023292041127262876
0.002421756720395082
0.0022517055003083617
0.0019578261480111864
-0.0014281100952361937
-0.0017129667767212206
-0.002049827426695101
-0.0023351400909146563
-0.002432504135880809
-0.0022969438300776083
-0.0019598117742716573
-0.00150225980106098
-0.0010402187058099546
-0.0006773561911091091
-0.000450416761806273
-0.00033518571265328794
-0.00027094470378196837
-0.00021699539258921642
-0.00016850617005972736
-0.00012658992477927676
-9.161144796401265e-05
-6.342495447740835e-05
-4.156271730044132e-05
-2.5360904168195987e-05
-1.4035549931609494e-05
-6.730576444212108e-06
-2.554616475286396e-06
-6.137930277030529e-07
-3.813512643600491e-08
5.225608562405674e-09
3.1743537655692244e-07
1.6914569693215518e-06
4.946856035507709e-06
1.0963851456188748e-05
2.0700859097468032e-05
3.518073001682675e-05
5.5430669444242705e-05
8.236737942558999e-05
0.00011662896491897332
0.00015836398878467657
0.00020701060777757348
0.000261109069857983
0.0003257693921947555
0.00044540487406191626
0.0006878567139970375
0.001083897788642566
0.001596981597904461
0.002113570467468054
0.0025056201955467473
0.002684509747308448
0.0026148607336149974
0.0023421409538649258
0.002012405325795636
0.0017364699999701234
-0.0009349767499026281
-0.0011158887096458143
-0.0014043901123684125
-0.0017665710909967056
-0.0020866470510773733
-0.002278070121707908
-0.002300965277157556
-0.002153191817694157
-0.0018710679366927406
-0.0015300761985368343
-0.0012100871582916871
-0.0009513970713022423
-0.000738880919915879
-0.0005549765629483311
-0.00040121978537097075
-0.00027884170649348014
-0.00018580256174508312
-0.00011813806451564964
-7.109305006575554e-05
-3.9933056264046284e-05
-2.043242350866621e-05
-9.09813303388088e-06
-3.2024931080405354e-06
-6.930289761875545e-07
-2.986364126748905e-08
1.795599958168104e-08
6.009804128369626e-07
3.0364346845593707e-06
9.067400219190977e-06
2.1115518736140106e-05
4.248487524778451e-05
7.744603394799653e-05
0.00013110359962953595
0.00020895609206434787
0.0003160930549903122
0.00045605982499051365
0.0006295333401192038
0.0008330823457999238
0.0010640849052926601
0.0013459245168010916
0.001698716993928252
0.0020758642339691723
0.0023865148592872136
0.0025480645824239845
0.0025255469652177235
0.002326161942421599
0.00199405330175206
0.001621140332631834
0.0013334544211895327
0.0011676928236263365
-0.00043930284899695133
-0.0005083798340538958
-0.0006540814148355698
-0.0008790844790343279
-0.0011296251291934855
-0.0013527995099609231
-0.0015124774578774217
-0.001583957927054319
-0.0015468096813373692
-0.0013989688460119087
-0.0011689698021116093
-0.0009010142611561338
-0.0006458587450561924
-0.00043748783388767324
-0.0002809073490303127
-0.00017058365024249535
-9.766368305099e-05
-5.24830148607809e-05
-2.6292549489927536e-05
-1.2138176592830514e-05
-5.051975063014131e-06
-1.8093242140578074e-06
-4.976761821301768e-07
-7.367802516577984e-08
-4.509495324230845e-10
1.748617566167206e-08
2.3217452143945288e-07
1.0382098539932437e-06
3.2076168292977113e-06
8.220868208524596e-06
1.870144995049996e-05
3.888946266670364e-05
7.499630686818201e-05
0.000135204598019791
0.00022906289211227097
0.0003661127516702973
0.0005537924749601111
0.0007949166693681593
0.0010806148172686537
0.001371614777812072
0.0016116457954841888
0.0017532903785851621
0.0017701594472712755
0.0016724136304566413
0.001488908260864036
0.0012481297327395656
0.000986283224891036
0.0007566272553760263
0.0006173163656909576
0.0005669078299224531
-0.0001269389863353966
-0.00013462370173679376
-0.00016967967083135192
-0.00023623983604150397
-0.00031946977482268183
-0.00040290090677245403
-0.00047467944061801103
-0.0005247544943117486
-0.000537002338185137
-0.0004942429792779547
-0.0003956694685917061
-0.00026505472631621775
-0.0001489272919952211
-7.237217790140879e-05
-2.9695915814633106e-05
-9.57110237820065e-06
-2.071464451527025e-06
-1.868988499510605e-07
-1.768268843825378e-11
4.639078685462175e-08
2.0571096158462222e-07
3.165785083359615e-07
2.816531520036307e-07
1.5869947255942995e-07
5.2160357147119726e-08
6.825442754324166e-09
2.1923590152345642e-11
-4.133785566695613e-10
-6.035228937930968e-10
1.6466173645101442e-11
2.0910781307975377e-08
3.108666339172189e-07
1.8792330113700108e-06
7.294100109904173e-06
2.1464449558286603e-05
5.196655269411558e-05
0.00010849060979159732
0.00020120066332101767
0.0003330310185093632
0.00047177940467889665
0.0005653162670226555
0.0005929410103530751
0.0005628099815019297
0.0004989365174913078
0.0004202556085309467
0.0003358668161442003
0.0002551741794850634
0.0001930650929876749
0.00016590446231920454
0.00017177405352843467
-1.3155198255746123e-05
-1.0100492365527564e-05
-1.0635255365477623e-05
-1.4329792734676262e-05
-1.927765542663715e-05
-2.368661707879271e-05
-2.656904629873588e-05
-2.7338262426937838e-05
-2.462880923181988e-05
-1.72805628691546e-05
-7.519970769864682e-06
-1.0131744221081264e-06
1.6555844239791807e-09
1.6980996273059827e-06
9.812726083945354e-06
2.5027748478072123e-05
4.3469513707909456e-05
5.9005170632238755e-05
6.619252437695674e-05
6.265914268743256e-05
4.9983090709199374e-05
3.2808784557666915e-05
1.6691171770312106e-05
5.691135447883304e-06
8.197962613110209e-07
1.797089459664363e-10
-5.168835645912894e-07
-4.034534074413816e-06
-1.1650778649426546e-05
-2.1702739532821052e-05
-3.063766384758063e-05
-3.4831508564677715e-05
-3.243737302495483e-05
-2.4363364185157665e-05
-1.3898353823949521e-05
-5.1131697785498005e-06
-6.801174003985924e-07
8.502029598411865e-10
1.4209332633571661e-06
7.825146000835034e-06
1.587036596956905e-05
2.0711523049340126e-05
2.1528079124471282e-05
2.0192861395800645e-05
1.805948991573721e-05
1.535612855908234e-05
1.2480610713300344e-05
1.0753749470636453e-05
1.2522592920120778e-05
1.9736732429732274e-05
1.2548303629529066e-09
1.9463937180038933e-07
7.769874328971226e-07
1.5202666643420678e-06
2.6321406415013576e-06
4.5981402414779754e-06
7.978543197010855e-06
1.3470321773419907e-05
2.2706497629670014e-05
3.983135080298958e-05
7.332158215502874e-05
0.0001369358487479475
0.00023640887082806422
0.0003569188075440988
0.0004772280494214636
0.0005740538684621908
0.0006259280157857512
0.0006195873157605824
0.0005545240221061455
0.0004439559467588366
0.0003115283867056453
0.00018451951777242158
8.564055179939025e-05
2.6182241688462793e-05
2.929579103541006e-06
-3.3842288338241937e-09
-5.0395608234165995e-06
-3.290171144330459e-05
-9.52054565160679e-05
-0.00019042178332989867
-0.0003044070581529893
-0.00041503056304505024
-0.0004990553308462995
-0.0005389077287668561
-0.0005272859113426605
-0.00046849185937635455
-0.0003764833658780335
-0.00027055031851421147
-0.0001729022929153954
-0.00010475401388538066
-6.580775857685361e-05
-4.358799470557469e-05
-2.9607515754182407e-05
-1.954265701011361e-05
-1.207549420501031e-05
-6.970433126602811e-06
-3.718450382297534e-06
-1.5872600486183516e-06
-2.77159803433464e-07
1.2785953451706178e-12
1.0020479320481467e-05
2.2895911723669282e-05
4.254292645295993e-05
6.987451408839227e-05
0.00010918199286471321
0.0001657849265786216
0.0002441894411861305
0.00034779926028594827
0.000481643642145627
0.0006551594283518706
0.0008801996205550733
0.0011632768044770217
0.0014761923461257662
0.0017602747373684276
0.0019658591177298995
0.0020542700227677963
0.0020025449412215835
0.001810901739602846
0.0015052888265384503
0.0011334730139658414
0.000754891408912355
0.00042651204023560867
0.0001884748644457293
5.372725713248811e-05
4.945958843767686e-06
-7.111910902404425e-08
-1.5972197382271127e-05
-9.402152853171227e-05
-0.0002675262230108311
-0.000542639154174007
-0.0008968086208680635
-0.0012847636776188438
-0.0016497507807926826
-0.0019366839186488207
-0.0021037924408909927
-0.0021302712883429437
-0.0020187899163544715
-0.0017929792462993426
-0.001497622710932372
-0.0012013443107173158
-0.0009454663137496516
-0.0007301229805258808
-0.0005483342413328001
-0.00039535869181035684
-0.0002714149060415185
-0.0001773364190869469
-0.00011006973478644345
-6.332215955050193e-05
-3.11342726190565e-05
-1.1704257463426311e-05
4.846841179197802e-05
8.877716955814252e-05
0.00015001103461835652
0.0002385917649422339
0.0003645221210723727
0.0005382507394389955
0.0007677824566244032
0.0010569748113499287
0.0014057883611129206
0.0018096532447138495
0.00225501944592389
0.0027130969676209095
0.0031283397356843138
0.0034330688458834007
0.003574242302893142
0.0035183594391714128
0.0032583018029462294
0.0028184723660882346
0.002253342585548594
0.0016386487316324815
0.0010565132068161586
0.0005777173994205648
0.00024556058120081716
6.569317875736827e-05
4.936162895063611e-06
-3.085975889405587e-07
-2.810058419265897e-05
-0.00015158831440721874
-0.0004212055898931503
-0.0008527976111155418
-0.0014241885535808286
-0.002080374679773349
-0.0027453319727905327
-0.003337230486180959
-0.0037835082332822703
-0.00403288874531329
-0.00406254916792718
-0.0038797139915776324
-0.003521553570272196
-0.0030561460729777628
-0.0025507079457052226
-0.0020490347689298034
-0.001581551038527306
-0.0011690792853370192
-0.0008255745701520118
-0.0005567076316561026
-0.0003581992512591866
-0.0002183647896311342
-0.00012338739242196198
-6.308005385943926e-05
9.336111578763992e-05
0.0001573269262747368
0.0002532407476565749
0.0003910032707690329
0.0005814365184778211
0.0008339908782244486
0.0011541581324125596
0.001540940451817417
0.0019845271703091256
0.002463954948009179
0.0029454011873248707
0.003383063371309264
0.0037246682449975773
0.0039209839732888005
0.003934406923635732
0.003747309492007038
0.0033686223377754083
0.0028357738336427765
0.002210573928894911
0.00156910371679467
0.0009873195240122025
0.0005255555786203294
0.00021567432354166672
5.41903898553742e-05
3.253212930149544e-06
-6.314187868796239e-07
-3.221371214776236e-05
-0.0001608902062304111
-0.0004357068228686915
-0.0008752083917000403
-0.001463955909028454
-0.0021558916364046643
-0.002883209474663625
-0.003568473573914242
-0.004137441227776443
-0.004530345998736067
-0.00471001533580354
-0.004665907959450218
-0.004413820604449204
-0.0039924576755988195
-0.003456938324857266
-0.002867340138542311
-0.002278470945545668
-0.001733678417231865
-0.0012622480489521627
-0.0008789232277037052
-0.0005850702416566779
-0.00037188713977321557
-0.0002249992388782535
-0.00012922432023930423
)
;

boundaryField
{
    "(inlet|outlet)"
    {
        type            zeroGradient;
    }
        "(front|back)"
        {
            type            empty;
        }
    "(top|hills)"
    {
     	type            zeroGradient;
    }
}

