/*--------------------------------*- C++ -*----------------------------------*\
| =========                 |                                                 |
| \\      /  F ield         | OpenFOAM: The Open Source CFD Toolbox           |
|  \\    /   O peration     | Version:  v1806                                 |
|   \\  /    A nd           | Web:      www.OpenFOAM.com                      |
|    \\/     M anipulation  |                                                 |
\*---------------------------------------------------------------------------*/
FoamFile
{
version     2.0;
format      ascii;
class       volScalarField;
location    "0";
object      nutCoeffs33;
}
// * * * * * * * * * * * * * * * * * * * * * * * * * * * * * * * * * * * * * //
dimensions      [0 0 0 0 0 0 0];

internalField   nonuniform List<scalar> 
1000
(
0.015343339064477133
0.015132931287545061
0.014849581223330731
0.01478647454497169
0.014859526617993085
0.014863141451912533
0.014570785400782726
0.013766277061659471
0.012400290178702502
0.010767786185763151
0.009309180984124598
0.008243410524668154
0.007333600467683175
0.006342070840863854
0.0052927122370961715
0.004255614186589511
0.003290264692375843
0.002439980744659576
0.0017294349090971777
0.0011653130243502033
0.0007395965403439288
0.000434423403756819
0.00022747571594134862
9.683009856062032e-05
2.472290206778259e-05
7.733548601869595e-08
2.003810800291195e-05
9.084931385892648e-05
0.00022811981363193916
0.0004561068916307978
0.0008052722681749858
0.0013075293478248156
0.0019890462106484388
0.0028616431729660066
0.003914608435855049
0.005109230924621263
0.006378288710167309
0.007631436447339178
0.008813057375407565
0.010134632996943482
0.01185859014149173
0.013821625939943467
0.015618544152293384
0.016924708088629763
0.017690039586809918
0.01798855316774232
0.01791025612457389
0.01765607536279963
0.01755998714671522
0.01756328050619009
0.01444853998984746
0.014113594909636686
0.013733807422587058
0.013483643288421734
0.0133666341620962
0.013358647132684169
0.013382637410071176
0.013256035928974973
0.01273028591109818
0.011739158185851353
0.01047469384397099
0.009110689139422137
0.007639561270801246
0.00612372522483067
0.0046811610514895675
0.003400824422535536
0.0023391639197959473
0.001517306677447465
0.0009248158612518388
0.0005284166333494265
0.0002831293883729495
0.0001429170672904453
6.850271083657266e-05
3.1122717518134756e-05
1.258047684345931e-05
3.2119766790651874e-06
1.2848823166649237e-08
6.7389800353245744e-06
3.645938321145191e-05
0.00011534307617671456
0.0002851565634319259
0.0006017296797108797
0.001127605600105799
0.0019191732957585359
0.003010701847564527
0.004399277547821868
0.006035127872861267
0.00782073469233242
0.009612846202537178
0.011318364677415768
0.012951667703795688
0.01436431372146078
0.015351845732402041
0.01590812649992285
0.016176456011040605
0.01623486856996093
0.016104525678411825
0.015894032134193766
0.01585758447130712
0.015985862797182674
0.013089113199996661
0.01275921061346764
0.012413883614794119
0.012013403206463878
0.0115635572711162
0.011195740709115738
0.011012852793918837
0.010978142557952465
0.010838038704552057
0.010284006660685277
0.009185942050707123
0.0075594911312426
0.005659844368846562
0.0038900881731246417
0.002432175429864265
0.001345261698506252
0.0006266246050585883
0.00022179256083895105
4.441157326966522e-05
3.7781117066637064e-07
9.921405454286541e-06
2.206909410409686e-05
1.8253795333530683e-05
5.191608968257737e-06
5.55924440842765e-07
1.7368814728236648e-05
5.3455363481974285e-05
9.047279362538447e-05
0.00010343240198151278
7.751944062891645e-05
2.5898739281757446e-05
1.252896565497464e-06
9.546597610658442e-05
0.0004254796458063602
0.0011078075132184351
0.002227840937831029
0.0038120499446070025
0.005810744207509049
0.008032538021651766
0.010045123826525663
0.011565868783403684
0.012552105072436148
0.013080185607788312
0.01338736926014749
0.013662623303742061
0.013892717959296183
0.013977958448275785
0.013903480302310645
0.01387137954651427
0.01400867466846911
0.01125224827076731
0.011055143507674527
0.010907488098717312
0.010508713352937515
0.009779044698966486
0.00894749138187478
0.008262684921137428
0.007832256069625579
0.007503939770142872
0.006934183234993797
0.005835154749327871
0.004151944808625733
0.0023559470755083645
0.0010097344758391396
0.00024321785717704985
6.346476055841171e-07
0.00014121008642119492
0.0004762779833687703
0.0008161277344191599
0.0010149400810748172
0.0010024198963674198
0.0007939597721344292
0.00047678284693934735
0.0001760346020461358
1.0704728408743988e-05
5.248068985427453e-05
0.00030018993342981263
0.0006780659022989381
0.0010590037067173968
0.0013061963929614773
0.0013208393421025165
0.0010815510778867728
0.0006634028210298483
0.00023040104454164018
2.562785726254651e-06
0.00020581402239343896
0.0010172057731159308
0.002519102084628498
0.0045895066445387446
0.006637034948345005
0.008128882203402207
0.009054674607824654
0.009642173675844447
0.010196600311481974
0.010845387059333626
0.011462650443305371
0.011830087568846015
0.011830970515957127
0.01168470099132928
0.011715327155616455
0.008978880942288535
0.009002938652746414
0.009191731699567192
0.009000599204798931
0.008188537161940516
0.007013842581353048
0.00583612423793252
0.004879682490564376
0.004109927491065857
0.0032912950693642397
0.0022181511700608125
0.0009702695621073465
0.00012198086944652031
8.642140520188324e-05
0.0007895356585495316
0.0019704989455840314
0.0032839579827266727
0.0043755650071787685
0.004961791987116965
0.004894951872904135
0.004197038428721805
0.0030530072874137507
0.0017638498991860833
0.0006699286927529028
6.341339550077083e-05
0.0001119886799981537
0.0008139148424115882
0.001996676896987084
0.003360076347339033
0.0045528115535890135
0.0052627611662269804
0.005298064756398918
0.004638460993957486
0.0034450043473835115
0.002026340231288313
0.0007708354202912407
6.11103605747604e-05
0.0001912351507729284
0.001251895625946173
0.0027990600921227885
0.004185472194763712
0.005264721197597535
0.0061992951106679
0.00720780389649986
0.008311964498980938
0.009283710561525684
0.009807015852862018
0.009716309236234651
0.009328611457523594
0.009172173446958518
0.006406348668960111
0.006666405716730083
0.007244538698889183
0.007442287865501962
0.006810536214256345
0.005547167224500935
0.004086444074053548
0.002777766440121302
0.0017269673978031273
0.0008675990115565499
0.0002025515961357005
3.699640163897681e-05
0.0008858959544111153
0.002788761412082849
0.005379329019648088
0.008150324905722988
0.010541400303414225
0.012053944377667441
0.012359645869981787
0.011377464576587087
0.009299496609156
0.006557052184469555
0.003732128407050761
0.0014321822743678654
0.00015629217306221998
0.0001833307204912709
0.0015086203298141207
0.003844336649998707
0.006683737111862731
0.009413946856608037
0.01145077315862482
0.012364925353392018
0.011971250840592201
0.010363225672106983
0.007887014594040852
0.00506382032779188
0.002479294839060058
0.0006654890736765136
1.095611051571138e-06
0.0004164923841417317
0.001338412545098714
0.002412967980224233
0.0036021820779530813
0.004953443325855977
0.006352174237611232
0.007462516705183653
0.007900471996175717
0.0075329115220157195
0.0068370785219236604
0.006480712211070527
0.003801599767370679
0.0042206699993760305
0.005104632968883608
0.005761445123322831
0.005548243868912348
0.004493905396589107
0.003023340800954586
0.0016127673010399193
0.0005676848888701288
3.556377846731675e-05
0.0002106158516290379
0.001491631327486128
0.004167834752482188
0.007910952387551568
0.012109582992426978
0.016059286558070682
0.019052680042345994
0.020519843435433636
0.020150895795463548
0.017972593985653092
0.014359293853528904
0.009971900581539206
0.0056348904381142186
0.002174839097274743
0.00025462941126139097
0.00023873584295091711
0.002119060551351731
0.005517625644246045
0.009765121652364138
0.01403764427606387
0.017521519774127876
0.019571558411686608
0.019829897795040095
0.01828398796064246
0.015254380195275322
0.01131892581467041
0.0071918756858137395
0.0035846786702535315
0.0011102559670736923
7.421108372500073e-05
0.00014846357742983088
0.0008927350653226312
0.0020740327607586336
0.003526863960415095
0.004954071962463782
0.00591047466832012
0.006014950728259014
0.0052717530599705005
0.0043250800636616925
0.003842148835523983
0.0015669374311579926
0.0019858273009785697
0.002938743473658422
0.003938795259180332
0.00425771831843452
0.003675296774232502
0.0024637976223120892
0.0011357361895715846
0.00020252417321488554
6.19675316288257e-05
0.0010412688824888076
0.003424977521024954
0.0071929017452352535
0.011845170292974187
0.01669037760860515
0.020962651648734263
0.023935478265286164
0.025063116217520307
0.024097311237679688
0.0211526363402605
0.01670347446463296
0.01150931746397711
0.006480671821151425
0.0025105395005668683
0.000305614437740352
0.00025146306760382114
0.002339596116443164
0.006171272697321077
0.011036568821402524
0.016051481610150638
0.02032441601672265
0.023118935066412428
0.023980955502140872
0.022808477477226995
0.01985295641609353
0.0156559504896739
0.010936533302242217
0.0064538315358373686
0.002895236408401624
0.0007512978589420141
1.001275342245303e-05
0.00033961264267031235
0.0013790095672473407
0.002731298286919102
0.003913415301458341
0.004445852938846658
0.004079744119701035
0.0030421003097824708
0.002055634410214034
0.0015986179138389003
0.00019974093358888104
0.0004196911728589143
0.0010892035918515573
0.0021028832473261746
0.0028457064808334906
0.0028678553224147584
0.002155864670773098
0.0010694750784355515
0.00018302193165869923
9.259906602971471e-05
0.0012318532237096248
0.003714035121344952
0.007281426431796151
0.011484375692025215
0.01574072143597018
0.019390268254426808
0.021824198611714512
0.022602295552521544
0.02154632072027834
0.018788556834535636
0.01476288830606823
0.010137087106965186
0.005697759489333641
0.0022088641776491437
0.00027195730986434113
0.00021532551690340733
0.002034280725023184
0.0053940775915633345
0.009694121474231914
0.014180054278690646
0.01808110967179344
0.020746278095896367
0.021753802159688165
0.020975329745089234
0.018584716511723345
0.01501259898939399
0.01085765063206483
0.00677336495132716
0.0033444729735258986
0.0010269552854903397
4.7572919543889686e-05
0.0002472674986052219
0.0011780487674079479
0.0022648468209506448
0.0029635617738616505
0.00292994031303996
0.0021767571055637154
0.0011462879706189068
0.0004538125377748138
0.00021448926687572998
0.0001955644887134034
4.5851744846725604e-05
6.204797207994937e-05
0.0006036139372878246
0.0013949937400900344
0.0019076569564063558
0.0018279264922984192
0.0011918283187621658
0.0003835079794237874
2.722244573264147e-07
0.0005439938291372719
0.0020924360127157374
0.004350953620136675
0.007033400747080627
0.009780515374412997
0.012159313076815864
0.013769309048038192
0.014319323072943473
0.013688527785514859
0.011957995087733613
0.009404777823488026
0.006457968451356771
0.0036243559596818424
0.0013972740336070475
0.0001665712083768754
0.00014701273257182736
0.001339127724047247
0.003529918480449453
0.006332926302228327
0.00925945304498211
0.011806928849022333
0.013547766809827071
0.014202029778292673
0.013681492515384579
0.012097780871252751
0.009734498259532827
0.006989779401082745
0.0043012558637925535
0.002042840720286584
0.0005172096845291751
1.3465024679622945e-08
0.0003892169065770007
0.0011884757667189364
0.0018214378704219307
0.0019133354309366069
0.0014181414386333904
0.0006324229876200082
7.529484189448993e-05
3.502133056455402e-05
0.00017927757703416132
0.0019039067534979556
0.0013119795260476172
0.00042088250184208473
1.1853649020832556e-06
0.0002682405338440776
0.0008437917426565549
0.001266220954864609
0.0012420086143445862
0.0007799165932993072
0.00021860107124136547
2.5578497811487694e-06
0.0003141820635719973
0.0010127469399660635
0.0019668077901388867
0.003036080634191512
0.004035968058359947
0.004785675285798415
0.005143434122275705
0.005036001468822062
0.00447568495822691
0.003560872996000126
0.002459294516847565
0.0013771877779278332
0.00052023636656318
5.412734268728807e-05
7.248963518327519e-05
0.0005785780940267416
0.0014843022888328067
0.002626768426940747
0.00379901420943047
0.004788951123323162
0.005418928530115884
0.005578300279920055
0.005242912433831355
0.004477964385964687
0.0034239247726765617
0.0022686680735121197
0.0012115681029639697
0.00041188922045489276
1.4614862356605528e-05
0.0001631353438029856
0.0006817062229775644
0.0011365922971653861
0.0011889074876669933
0.0008104664759713132
0.0002670248986693824
4.1193762713289263e-07
0.0003887822337338536
0.0012473821568934175
0.0018480737418464282
0.005374859649494796
0.0044090383531634626
0.002588179026715714
0.0009155802896639236
9.04275252925879e-05
7.398878865016851e-05
0.0005051491777648188
0.0009552536156863313
0.0010992710184035642
0.0008802254234076151
0.0005057603579896236
0.00021809787066560948
6.608276184194486e-05
3.922400692880659e-06
1.4008604880368308e-05
7.66340297447403e-05
0.00016380508312786605
0.0002456357825291284
0.0002971702470664601
0.0003039463519819833
0.00026493117957753436
0.0001921835225481197
0.00010737715806016662
3.608295535910147e-05
1.1644287786966745e-06
1.684665528412128e-05
8.482772514693312e-05
0.0001933709229945666
0.0003196603342448865
0.0004349637251107938
0.000511476908849217
0.0005293144797273377
0.0004819561987921722
0.00037881126845379625
0.00024415047872769653
0.00011251248976631773
2.1550730066491875e-05
3.938773750782532e-06
8.631383642147026e-05
0.0003138227791506574
0.0006534847834360395
0.0008847375413707888
0.0007988078779327578
0.00042717473494598997
5.846192791873785e-05
9.363933614114507e-05
0.0008865091677736878
0.0024954077877148194
0.004274252295371157
0.0052722484810199454
0.010259433775548022
0.009120327938024744
0.006615990584964189
0.0037487196277693267
0.00152792321816288
0.00030036592462277003
6.04296106804956e-06
0.0003564296839693652
0.0009446788653636325
0.0014221842516767204
0.0016725856212595216
0.0018062573572188824
0.001923261223597493
0.001981685631351265
0.00195654723608642
0.0018509816686178857
0.0016758557930005513
0.0014479478764530124
0.0011876848275160269
0.0009167936647903049
0.0006561731661840338
0.00042413642152615353
0.00023513626607997356
9.90001684946904e-05
2.0699187386375842e-05
5.909237136707749e-07
3.50373520558441e-05
0.00011725204516103922
0.00023820165612789456
0.0003874229435077251
0.0005536559574467057
0.000725310759460579
0.0008908094657627923
0.0010389231165710033
0.0011592278150706582
0.0012427251767167591
0.0012826337449281197
0.0012752596280584984
0.001236016946294658
0.0011906196271320051
0.0010465686086483402
0.000700613996797321
0.00024813942475846915
2.264831251768454e-07
0.00033226125986163425
0.0015236617535767272
0.0036515271591385395
0.006414516459971099
0.008877638178840186
0.010091895124140222
0.015824987598793392
0.014782607772969684
0.012037513838190505
0.008392950292636002
0.004906629796572888
0.0021970809905419125
0.0005505744754272025
1.3981425939583727e-06
0.0003449399075140347
0.0012159174843846916
0.0022819146756131994
0.0033961414775455848
0.00452706515644835
0.005558551957548437
0.006352527439436329
0.006804790562019901
0.006852415874618397
0.006483762170013777
0.005741096463754072
0.004715487353451925
0.003534667949941414
0.0023456449568759626
0.001294660726715958
0.0005074295277891712
7.261760414231925e-05
3.096538563504033e-05
0.0003713895657910273
0.0010343320099175158
0.0019214329377313325
0.0029097732496820403
0.003868482967546495
0.004675481661878467
0.005232231952490509
0.0054749829868602955
0.005381255312742993
0.00497100810072334
0.004302391595131642
0.00346262675570614
0.002563088769070563
0.0016929130068240293
0.000867303163807063
0.0002091461277976594
1.5604976911032254e-05
0.0006214015089659044
0.002222734735401227
0.004805041520553604
0.008126586502613676
0.011636668293308521
0.014363846324134304
0.015549129111062914
0.021107020420391916
0.020407779665137366
0.01790377450465651
0.014101345321865227
0.009873225269312842
0.005913380451129854
0.0027468857449388074
0.0007328534481004988
5.068795031747668e-06
0.0004316738584365926
0.0017019231572285721
0.0034896123441649583
0.005561389236857353
0.007677361517428971
0.00954464648021532
0.010890716123752657
0.011513280774901075
0.011313894591435048
0.010315390292350818
0.00865993117030385
0.00658795356392992
0.004401292107437129
0.00241664334837796
0.0009169698131135591
0.00010887502873322528
9.266407701473524e-05
0.0008494946534316853
0.0022470234097859533
0.004061939596191904
0.006015243267028164
0.007814480117310039
0.009196671703616823
0.009965517890461207
0.01001814377091811
0.009357603246699408
0.008089644943387946
0.006404370754132906
0.004545606038703351
0.002768976420164702
0.0012798761335735798
0.0002724586660716035
2.680895428453308e-05
0.0008190768272828016
0.002771229196471952
0.005770316619664115
0.009504006936644757
0.013511608377937419
0.017176888367816525
0.01971172717590348
0.020640129853638087
0.025155809666286593
0.02493957577062651
0.023028690932913355
0.01964364286858329
0.01535340356037389
0.010757166036473568
0.006450709550777107
0.0029844054025139504
0.0007753009053428568
1.6620063373016618e-06
0.0005673486333259177
0.002170332928370416
0.004461287938136022
0.007091284282013787
0.009644942967563642
0.011705633488986142
0.012935224056102814
0.013131303885048698
0.012261698680898003
0.01046994451646415
0.00805084339702343
0.005400249742384083
0.0029482628765708776
0.001087437982836513
0.00010855804438169689
0.00015460421979358928
0.0012000937403152919
0.003058357337912204
0.0054146290057093425
0.007878750434922342
0.0100486817333869
0.011574589593847398
0.012213694583181577
0.011867634502762311
0.01059669770159963
0.008608822071224454
0.006225123964658102
0.0038274723585524743
0.001788808175424204
0.00041722021689398925
1.2542054863638892e-05
0.0008303009895256477
0.002947227059090543
0.006200002498594001
0.010216861876403187
0.014511315385195175
0.018558717086101805
0.021833311237479943
0.023838115069041047
0.024369688738062622
0.02728643258966965
0.027549891761367948
0.026353493725792296
0.023713899838408888
0.019907322108271383
0.015361067425890003
0.010611223790470877
0.006240819254222895
0.002793110072323525
0.0006630553321235223
9.577515547698411e-07
0.00067930408187601
0.002383433924075118
0.004734123723643584
0.0072756100055186455
0.009529423500923366
0.011082520530966866
0.011658137276604056
0.011161940356285241
0.009695095853477111
0.007532297647741975
0.005069166886435289
0.0027491882575169653
0.000983844654544821
8.034352790572812e-05
0.00018945315337621366
0.001281828300820644
0.00315594420969898
0.005475286383468908
0.007827852807273643
0.009797503952438091
0.011035566907038174
0.011320744859438991
0.010597831891047335
0.008988730674118262
0.0067737319285647015
0.004345953581695833
0.0021464255032316148
0.0005861964052509735
1.4227341640164295e-10
0.0006561804453984526
0.0026516102970030524
0.005838028128312418
0.009856135648318342
0.01422287007384078
0.018425199199088155
0.021994721651880447
0.02456434699379607
0.025911549964910026
0.0260261530049125
0.027238954672096517
0.02785639069923176
0.027271494959964584
0.025398083783946514
0.022316026266866126
0.018295859002547078
0.013761896730817222
0.009227094389546244
0.005217589283724993
0.0021903815514797507
0.00043925125938419895
1.5933888588928267e-05
0.0007341816507205888
0.002274339066082251
0.004227019127758922
0.0061446357017239436
0.007621671783788634
0.008364871876233634
0.008241159912436
0.007294643717489251
0.005730452039457348
0.0038694062877660113
0.0020829009245968448
0.0007207961490874791
4.576868455373813e-05
0.00018573044697538487
0.001112224473895248
0.0026476911544573932
0.0044995602487912754
0.006314689684195821
0.007744471037046796
0.008509558249453101
0.00845288845053295
0.007571966386275226
0.006024374969665806
0.004105005658628545
0.0021985019177481243
0.0007148408568361534
1.8836823837407063e-05
0.00038671746715280626
0.0019692207807011195
0.004703086652650675
0.008314440281040667
0.012394550582076563
0.01648345100388825
0.020138086697126484
0.02299496205770348
0.024829618057332314
0.02559629097893352
0.025378469529704448
0.0251998415186798
0.025984461559254157
0.025776512029673192
0.024470163954434573
0.02206795412244705
0.0187460453778743
0.014825679661326675
0.010716099218307172
0.006852279272515893
0.003637219893586202
0.0013753146114952235
0.00020234283561526564
5.3072016303347e-05
0.0007115990656665203
0.0018681545819886117
0.0031698633551606654
0.004284451987340424
0.004957965924880417
0.005055033872956678
0.004574964093211785
0.0036417483731560154
0.0024711419951646183
0.0013221896328423858
0.00044299119789752736
2.108613971189395e-05
0.00014732985085146787
0.0007993420705084196
0.0018469091726550809
0.0030778529167097015
0.004239550852404176
0.005088596264245541
0.005439839775770536
0.00520588874319139
0.004419664474826459
0.0032353196008929543
0.0019066072127032943
0.0007459408232358876
7.117906385368447e-05
0.00015046184686259568
0.0011610367280212484
0.0031434463210506278
0.0059626471206255345
0.00934300110137309
0.012933995875957269
0.01636761289305114
0.01930301747456159
0.021475591367031945
0.022745874343513627
0.023128995837769287
0.022719395764140886
0.02169698172863293
0.02247019461585691
0.022392762392615506
0.021391916386665287
0.019486773348700873
0.01682121275809765
0.01364340605123442
0.010265421091281254
0.007016007852283862
0.004196189841252799
0.0020363208412116666
0.0006574645151502709
5.096670958862974e-05
9.349937397440149e-05
0.0005838590607257998
0.0012838130581710983
0.0019623308148532413
0.0024353151054009527
0.0025935471304729413
0.0024145357249348983
0.0019572275472955667
0.001341791330046715
0.0007192902833235205
0.00023749899129969944
9.433402533339271e-06
9.021915067576152e-05
0.0004662450012903604
0.0010582685650330562
0.0017376974978695425
0.002353126907963753
0.002762240522676316
0.0028633127523975017
0.00262022370533134
0.002075886067800045
0.0013508861389517502
0.0006268432517413075
0.00011697674464620329
2.9034818448874337e-05
0.0005277000020613616
0.0017031618480214871
0.0035448874178784623
0.00593488097283828
0.008670976204307793
0.011502562386055624
0.014165677610528934
0.016415562340434717
0.01806044108772938
0.01899137654821572
0.019198680598133563
0.018737922384228563
)
;

boundaryField
{
    "(inlet|outlet)"
    {
        type            zeroGradient;
    }
        "(front|back)"
        {
            type            empty;
        }
    "(top|hills)"
    {
     	type            zeroGradient;
    }
}

