/*--------------------------------*- C++ -*----------------------------------*\
| =========                 |                                                 |
| \\      /  F ield         | OpenFOAM: The Open Source CFD Toolbox           |
|  \\    /   O peration     | Version:  v1806                                 |
|   \\  /    A nd           | Web:      www.OpenFOAM.com                      |
|    \\/     M anipulation  |                                                 |
\*---------------------------------------------------------------------------*/
FoamFile
{
version     2.0;
format      ascii;
class       volScalarField;
location    "0";
object      nutCoeffs7;
}
// * * * * * * * * * * * * * * * * * * * * * * * * * * * * * * * * * * * * * //
dimensions      [0 0 0 0 0 0 0];

internalField   nonuniform List<scalar> 
1000
(
0.011133606875393854
-0.003158138408424622
-0.0358190364512287
-0.07939048771361398
-0.12037277618211231
-0.1517490857398675
-0.17099468551501998
-0.17765418896480054
-0.1734163723076845
-0.1626053275951422
-0.1503333091216771
-0.13978018188640715
-0.1292518992974479
-0.11583705702683253
-0.09921842534514018
-0.07987130242677275
-0.05844290756866113
-0.035731151451916354
-0.012651079895468344
0.009810634573929585
0.030649290048321173
0.048900933407007546
0.06369974799807052
0.07433194789441469
0.08027888814179338
0.08124804444894905
0.07719006877004522
0.06830044704050206
0.05500746685856134
0.037946361219112316
0.017923143272260387
-0.004133108903272266
-0.027221827493707294
-0.050328739098826514
-0.07248316905903403
-0.09280955960839908
-0.11057234549770166
-0.12520792099507738
-0.13703157275964406
-0.14926789177458957
-0.1639004271890493
-0.1776719303238288
-0.1851170006613736
-0.1812571919627012
-0.16373894353931465
-0.13258303390753826
-0.09024040930482688
-0.044325703094109124
-0.009699526410542992
0.0053123426650020485
0.04179986095325215
0.030847600596964432
0.0014288781561230732
-0.04170983507475939
-0.08657664289068837
-0.12568019473899122
-0.15533896725693772
-0.1735923610109388
-0.1800737766746926
-0.1770725670652212
-0.168664170744765
-0.1581120102345126
-0.14522690921644876
-0.12863677726462067
-0.10840296902404745
-0.08510994496185945
-0.05953010057543944
-0.03259778279925046
-0.005370733376701651
0.021019736344690353
0.04542714118572494
0.06675336255388575
0.08401040599391792
0.0963798610683294
0.10326091647597742
0.10430663089377125
0.09944523676828076
0.08888531991036579
0.07310509946790364
0.05282613501812108
0.02897440774855362
0.0026264682697178026
-0.025048657028477715
-0.052857118772873024
-0.07964697644652168
-0.10437008854566959
-0.1261359861105674
-0.14425202584176977
-0.15865752932433372
-0.17108556006369752
-0.18198191195964764
-0.18779849289322842
-0.1838757764553785
-0.16725246816576053
-0.1378701566358562
-0.0976067914230763
-0.050434939894736346
-0.004638769343190833
0.02662090248231529
0.03808938734417595
0.07022172061776855
0.06299960918342892
0.038708075175230824
-0.0005884448001732379
-0.045287786933823
-0.08830577475377711
-0.12544345788814065
-0.15367627878706228
-0.17073518485692052
-0.17650814694459044
-0.17327227858364946
-0.16373862069763337
-0.1493226402200763
-0.13054118117604985
-0.10787746910065293
-0.08198618884058886
-0.053717954256059935
-0.024090528432038804
0.0057525339858942055
0.03459407800373573
0.06120452385205956
0.08440744426609559
0.10314426906644482
0.11653640908901053
0.12393607572336865
0.124965351303295
0.11954007979504717
0.10787662179495008
0.09048225121112088
0.06812809570926846
0.04180873743265559
0.012685974411272368
-0.017974153332218218
-0.0488722989629564
-0.07874889324352922
-0.10645012923489854
-0.13098740904625666
-0.1515824770051274
-0.1677289482497972
-0.1791892267600395
-0.18466326730393504
-0.18101500450130237
-0.16536742638373655
-0.13737866117044994
-0.0992173565867821
-0.054105360075340274
-0.0067085047007494755
0.03513890802797795
0.060966419245247795
0.06847315253481595
0.0940829828963182
0.09066370601132255
0.0728411851225191
0.04028301776900484
-0.00030747153215844125
-0.04294313062838816
-0.08352840306243853
-0.11855662411983672
-0.14434356183272598
-0.15845157085899353
-0.16094247432267908
-0.15346643188247103
-0.13886826752825826
-0.11955527711537763
-0.0963906780614638
-0.07003951086901554
-0.04136097450149701
-0.011379549241573394
0.018756719479090602
0.04782862847083261
0.0746063367408642
0.09791528296747981
0.11669979283046372
0.13008497507235484
0.13742675796799983
0.1383505194226819
0.1327741433570315
0.12091462601806285
0.10327769175639166
0.08063125292607051
0.053965125627861266
0.024435611770837178
-0.006695462463237498
-0.03813068131897027
-0.06860781806636823
-0.09696502430060805
-0.12219975204825562
-0.14351428724005746
-0.15997621842699844
-0.1692665946800381
-0.16846822458314886
-0.15551336357452542
-0.12992074566122666
-0.0939758039368457
-0.051516897064480184
-0.006384738152122534
0.03684982970508677
0.07160876421073345
0.0906016264939252
0.09409803737997172
0.1113227191153446
0.1114638999406704
0.10078102388103374
0.07700433564298602
0.043799152441581106
0.005636076691908076
-0.033959577257939785
-0.07156178305142401
-0.10277974482262119
-0.1233871188217244
-0.13128161533492716
-0.12678202885474293
-0.11372145841884947
-0.09602484694173667
-0.0748102005996512
-0.05068063376159409
-0.024420833509527184
0.0030295241421409405
0.030614886605995956
0.05721306090319435
0.08169268831380123
0.10297473598483471
0.12009254122746704
0.13224863403153453
0.13886039224607305
0.13959424144411142
0.13438511783142285
0.12344026504058851
0.10722793172359657
0.08645159494271798
0.06201262789771057
0.034960113812240415
0.006436637440402662
-0.022382769568691036
-0.05035348576960326
-0.07641800028381003
-0.09965954655583205
-0.11934299954373999
-0.13423731936270486
-0.14030437034794072
-0.13347796375836143
-0.1131266064687744
-0.08117282139200135
-0.041934917288402374
-9.587065326275524e-05
0.04055564671077667
0.0760903699929187
0.10161760075676197
0.11310947921599783
0.11289115109835025
0.12036139384483426
0.12353812873578261
0.11995047140720513
0.10594079190570102
0.08231095166929601
0.05186189025026427
0.017294110010387793
-0.01845367293015332
-0.051015030107926004
-0.07523835372866863
-0.08739354913458743
-0.08652680371545245
-0.07683268816205456
-0.06305579669051296
-0.046379083628095646
-0.027271804384548348
-0.0063608873657653294
0.015590594678590178
0.037716452759314296
0.059090572799096214
0.07877686407741365
0.09588348009817735
0.10961470332885687
0.11931914591084972
0.12452772357448261
0.12498044141607513
0.12064002728219456
0.11169221513189137
0.09853295812507146
0.08174498444876226
0.062065363456609755
0.040344698558359815
0.017503468039653945
-0.005515517373588307
-0.02779568236162887
-0.048491221832335514
-0.06686898063865185
-0.08234207937936198
-0.09359849214454864
-0.09566117054424053
-0.08400805910493098
-0.059382942917451484
-0.0255183601203974
0.01219539620180908
0.049039239036224896
0.08172820169446533
0.10724466981230918
0.12251464372752906
0.1265660574808493
0.12321708738571391
0.12028724751231513
0.1257494537049233
0.1285382490209871
0.12417386021866796
0.11100529759743923
0.09022318166559046
0.06363502603216928
0.03348746733959948
0.0035468151721352965
-0.02105050041745446
-0.03581162689656176
-0.03888643595942558
-0.03415886421458025
-0.026319764915749225
-0.016403874288101684
-0.004689753125383522
0.008419564552337257
0.022410603538783883
0.036683836844842235
0.0505871977744418
0.0634556484129005
0.07465406981051266
0.08361810498357686
0.08989115197105939
0.09315249814928867
0.09323549640510922
0.09013498553563697
0.08400375414185061
0.07513979950717722
0.06396589546427879
0.05100398306055469
0.03684505840636978
0.02211866698398427
0.007460430005176906
-0.0065196480116993995
-0.01926685554059858
-0.030309122090495542
-0.03928029691590725
-0.04503524990738178
-0.04263312377769001
-0.02783736671947333
-0.002350164627749044
0.029224710814731804
0.06142978243928133
0.09012357504957873
0.11275071196287394
0.12727770454313783
0.13237604674124837
0.12971437425586319
0.1240353994448615
0.11097580154525892
0.11782586975783488
0.12571452833561783
0.1298645246910412
0.12673910261221238
0.1161265802867844
0.09899441101528926
0.07685403698555573
0.052529505908661824
0.030366672432437486
0.014705559788261768
0.007749909859833438
0.0064939086398193
0.007123345361272804
0.008932306441667532
0.011860760196615595
0.015762387456378726
0.020410095044823908
0.025510182909319546
0.030723831584526736
0.03569399810695593
0.040074693748259435
0.043559240557939694
0.04590462467849063
0.04694945758986342
0.04662399745483769
0.044952076619438286
0.042045356987990334
0.038091551933774975
0.033338322782401585
0.028074975992354655
0.022613195478163765
0.017268689221783602
0.012343869448995178
0.008111500741311298
0.004800572499400422
0.0025833196711330508
0.0015646259226979166
0.0025191017700142257
0.009471083744831636
0.025743800540580567
0.049219866778644546
0.07537033229712506
0.09948479240751229
0.11838247811469849
0.13031407570141976
0.1341903588146029
0.13021931041878537
0.12213374973936512
0.11505907056801766
0.09312499620561832
0.10040970858525382
0.11174168330666019
0.12248668275467377
0.1278710313695359
0.126584876304132
0.11887305670348489
0.1055612869700344
0.08840775321076423
0.07049539118077094
0.05530891013390868
0.04491010079515833
0.03752758187682193
0.03078053867170974
0.024390555393810773
0.01850743922949392
0.013232298015746826
0.00861503776776483
0.004658289019650706
0.0013268086722736288
-0.0014388207950647566
-0.0037068656396562092
-0.005539122809055263
-0.006978543223135112
-0.008040702288718752
-0.008710515396744912
-0.008944041855426207
-0.008674756249870418
-0.007823058774521725
-0.006307402194303215
-0.004055495447749383
-0.0010141871891824667
0.002842624513692341
0.007508484047337438
0.012941303518426237
0.01906177153375713
0.02575342919691891
0.032863915469004724
0.04069467818652587
0.05178715996067042
0.06814212068587212
0.087681803912531
0.10666604882182242
0.12165433302109417
0.13060846452311925
0.13257040105316367
0.1272841330132352
0.11617641906304614
0.10436046759745057
0.09686722262831811
0.06819861624465585
0.07500753981530706
0.08796358932892664
0.10290516610447796
0.11447975094123394
0.12063770527033124
0.12105371946206116
0.1159617461042233
0.10609614658336952
0.09312956321292308
0.07933997809942955
0.06635445092783306
0.053739265677046184
0.04071774225046985
0.02743251804552585
0.014199104801574675
0.0013153351521657212
-0.010946802513697467
-0.022345509557521705
-0.03266981338973275
-0.04173757844093552
-0.049392143887869985
-0.05549855417075773
-0.0599413329161301
-0.06262362012636279
-0.06346883988595237
-0.06242447425267572
-0.059467556508948166
-0.05461105474810328
-0.0479099537656988
-0.03946629484394704
-0.029431572851701192
-0.018007066252608
-0.005440787951358017
0.007978581896242733
0.02192902593796532
0.036065048767025314
0.05002783631738024
0.06366154442523898
0.07785882965684571
0.09316077452324886
0.10780233620810206
0.11921905593040652
0.12545082106791516
0.1256041146975547
0.11942658618146192
0.10732649215601398
0.09155836311865415
0.07790147831320432
0.07091794406443182
0.03828388240583719
0.0438426671598743
0.056669907011985356
0.07328468494847308
0.08835609617834188
0.0994678710075025
0.10589905369219675
0.1074136220471285
0.10388313376378105
0.09569529273714898
0.08391849569757799
0.06968586400462345
0.05376261626657265
0.03676869946261721
0.019164896170340374
0.0013600700267811189
-0.016234094688391494
-0.03321380882496046
-0.04919191694170485
-0.06380515082113863
-0.07671995985221976
-0.08763795692667348
-0.0963004201475755
-0.10249354797844104
-0.1060529158811448
-0.10686848020802037
-0.10488911202151283
-0.1001266799101731
-0.09265929421464983
-0.08263328529759154
-0.07026326004584792
-0.05582955062979405
-0.039673433628989486
-0.022189282946622917
-0.0038133282393763538
0.014989134780072248
0.033738330912140006
0.05195613762223351
0.06914515711838731
0.08475725342110933
0.09801672230893445
0.10756930798250805
0.11208743600669852
0.11100691205496195
0.10442075736728504
0.09263773502633552
0.07652517597332255
0.05875327196742811
0.04510719286096946
0.039429393168462654
0.005880133952627415
0.009627562318558927
0.020847591762868857
0.036833867922094386
0.05276569182967247
0.06620754149958451
0.07622797595713367
0.08226734723306714
0.08357818260397733
0.07958006940312617
0.07038114380618078
0.056721889980285795
0.040232891783885755
0.022455538480164267
0.004003638734625694
-0.01470983648345182
-0.033260173354001915
-0.05122047821147851
-0.06817071746833601
-0.08370701438845371
-0.09745085552590695
-0.10905860206509717
-0.1182307785751698
-0.12472116121086532
-0.12834465284453667
-0.12898377365284472
-0.12659357693264356
-0.12120454146049955
-0.11292372260254463
-0.10193376473554412
-0.08849049004471007
-0.0729172052965452
-0.05559800029414037
-0.03696781047267122
-0.01749945848772576
0.002310148043034401
0.021956717953410393
0.04094554576796354
0.058613615561496475
0.07344811101030886
0.08373279513473532
0.08849573015974391
0.0874425058933736
0.0810891956060652
0.07024342500727361
0.05559773598093515
0.03826589408029634
0.020954369333000905
0.008914643164170967
0.005141042464185639
-0.02635485387828535
-0.024717843264067695
-0.016149826136350947
-0.002584643632757875
0.012007919867772353
0.025458836397233564
0.03680549279804513
0.04532726614288686
0.049945361246918465
0.049524141033453276
0.04358298133270019
0.03261976715555231
0.01867845684921978
0.0036426548201823725
-0.011901384185362261
-0.027627528931066063
-0.04319879845430768
-0.05827234234257742
-0.0725049904364114
-0.08556030301135704
-0.09711661723406789
-0.10687653770499372
-0.11457693476337562
-0.11999904326194417
-0.12297719764061867
-0.12340611128291605
-0.1212457772431867
-0.11652412977980972
-0.10933736784676308
-0.09984832704549514
-0.08828322090955054
-0.07492593114567905
-0.060111389586015744
-0.044216199794079855
-0.02764733177680726
-0.010829067144993062
0.005811541068987192
0.0218603715181818
0.03667385142385867
0.048360884269128906
0.05477013535907183
0.055224418971640016
0.05010878864553079
0.04058704204753667
0.027864646234905
0.012833687668359534
-0.003341715739494318
-0.018228748683732206
-0.027490098051829226
-0.029002182202447938
-0.05587638578929577
-0.0563714837121222
-0.050977855874951156
-0.04092935511284899
-0.029168410793820907
-0.017400452943946085
-0.006466888910139884
0.002910872775357535
0.00960577751307472
0.012337641820147738
0.010405299183344863
0.004174710752405192
-0.004366408978754232
-0.013513539536381031
-0.022857872082560612
-0.03223568893342322
-0.04147927640731813
-0.050415157966324654
-0.058863429284340484
-0.06663923333571445
-0.0735564747647179
-0.07943406936715142
-0.0841034718883325
-0.08741742847345661
-0.08925806463915067
-0.08954388301630646
-0.08823489590396826
-0.08533576264090019
-0.08089687604269746
-0.07501385487379214
-0.06782551565513915
-0.05951041680580909
-0.05028208003074349
-0.04038257484732773
-0.03007420596115663
-0.01962982162815904
-0.009321365011833883
0.0005916329253135185
0.009633782064110778
0.016062478738429843
0.01779794434498216
0.014380885733494237
0.006511680438770196
-0.0044234659919313015
-0.017121377779339128
-0.03066351022153375
-0.044002358576018114
-0.05519743516316995
-0.061030883833850705
-0.06018567004018341
-0.08051530716825211
-0.08290993614527331
-0.08068226743083518
-0.07448358313467314
-0.06621286014493818
-0.05702017567286187
-0.047520827700919546
-0.03830582608112042
-0.03032323234327105
-0.024676701564525706
-0.02201334401092313
-0.022062321471906697
-0.02327216135056308
-0.02446458987042518
-0.025495796256553918
-0.02640879390653321
-0.02725126885825397
-0.028066399426070313
-0.028884642284696734
-0.029718386102189978
-0.030559598011827102
-0.031381001147105396
-0.0321398710597135
-0.03278373582298356
-0.03325695357715813
-0.03350678870120587
-0.03348892263949302
-0.033171371611170106
-0.03253740892067458
-0.031587145886358005
-0.0303382929068927
-0.028825849542672484
-0.0271007503721999
-0.025227172305999055
-0.02327835708057307
-0.021330863613225916
-0.019457759404064145
-0.017721409297452848
-0.016342864789148925
-0.016566023836948898
-0.02000554210838464
-0.026929077784540897
-0.036595899697830954
-0.047728111258198064
-0.0591660947896007
-0.07011174114978176
-0.0797572446605729
-0.0867667537622788
-0.08907129068143863
-0.08603261905748508
-0.09870636136933007
-0.10256976427838604
-0.10304234665753048
-0.10032922912531664
-0.09540619831756253
-0.08888080113178212
-0.08109995796920469
-0.07244828149496413
-0.06356606234494457
-0.05520449053887559
-0.04781820804672929
-0.04124975821609949
-0.034591013595528824
-0.027315935934561
-0.019559945972713218
-0.011576030934478636
-0.0036293357449705414
0.004019194256216101
0.011127729168442341
0.01748556246661373
0.022921089866668663
0.027305680059800226
0.030554001584027716
0.032621354327685294
0.03349931217981235
0.033210566715231656
0.0318036581502648
0.029348091530564863
0.025929798541440105
0.021647293892892352
0.016608015289960837
0.010925533401369394
0.004717326295170295
-0.0018962809101399469
-0.008791913167861659
-0.015841815020409083
-0.02291159816999744
-0.029857933832426183
-0.036627273771826833
-0.043826277719890644
-0.05239325761615802
-0.0623974626066629
-0.07321297090073658
-0.08386829829884086
-0.09349903510104178
-0.1015248078495516
-0.10743825278378145
-0.11050787641218682
-0.10968730509152962
-0.10485046741945579
-0.1096448721191109
-0.11443116465528051
-0.11682393446855696
-0.11671871569734311
-0.11438355958503343
-0.10998106593150259
-0.10361112319881745
-0.09544258472660377
-0.0857944890909629
-0.07504954934013869
-0.06346218810564971
-0.051018620732780955
-0.03745651331693801
-0.02282589140424536
-0.0074911217044785604
0.008122128073288019
0.023571802837581684
0.03842093633272087
0.05225749562038786
0.06471064987294806
0.07546297339415398
0.08425797040645318
0.09090350966255291
0.0952719611359294
0.09729790402022317
0.09697438028403955
0.09434821365275306
0.08951504484705788
0.08261399710429947
0.07382223948610492
0.06334979156807527
0.05143398115464892
0.03833495700610511
0.024331450285906595
0.009717527459729374
-0.0051998445298758085
-0.020103369040800647
-0.03466787576804098
-0.0486003113391659
-0.06191699223374694
-0.07487295389297928
-0.0873429994835561
-0.09886709729293558
-0.10883575507826282
-0.11672335245091912
-0.12219494699533656
-0.12503239458122736
-0.12500782079965628
-0.12185655068013072
-0.11578967407736983
-0.11333638229514661
-0.118476944466643
-0.12188012211166285
-0.1232572763580056
-0.1224288921090579
-0.11926189371349862
-0.1136770384959658
-0.10567581295148278
-0.09533801569989883
-0.0827866653675641
-0.06815596042233821
-0.0515818661375017
-0.033278112025243244
-0.013662942124777522
0.006761622032175397
0.027463949654094846
0.047895433133609944
0.06751395068119469
0.0858056795898851
0.10230281890180493
0.11659765319959449
0.12835188297623565
0.1373019448414236
0.14326135201534115
0.14612028867581892
0.14584371504925112
0.1424680624579795
0.13609698373464313
0.12689641024341816
0.11508888261785127
0.10094781286609808
0.08479059828640857
0.06697313695694906
0.04788335825264857
0.027935487263246628
0.007564215369968502
-0.012781444243420667
-0.03264561286845714
-0.05157069941481489
-0.06916201014782683
-0.085160126041276
-0.0992845046884418
-0.11121169539217746
-0.1206263289965738
-0.12728089198206963
-0.13104514188833347
-0.1319179712835734
-0.13000857517268427
-0.1255376175666714
-0.11889445079490825
-0.11051932980128049
-0.11550566988921253
-0.1190618262512839
-0.12082605015035536
-0.12042950024688334
-0.11760551890944906
-0.11218560745492827
-0.10408355385431221
-0.09326795540583417
-0.07976149093427863
-0.063680272860989
-0.04527323806593049
-0.02497553608633375
-0.0033312008171372275
0.019120504764280868
0.041819494981889506
0.06419039063236097
0.08566537095773798
0.10570433121634817
0.12381204689633649
0.13955142013900942
0.15255313784155738
0.16252194340476883
0.16924045137166535
0.172570696887042
0.17245408444314655
0.16890994694584763
0.16203287994975338
0.1519888584506246
0.13901033326529813
0.12339072578718656
0.10547788831289896
0.08566783177438443
0.06439765446808367
0.04213800072493717
0.019385526127727055
-0.003346611233511227
-0.025539503340759835
-0.04666503952418412
-0.06615630880049576
-0.08350786915948137
-0.09835043326454647
-0.11042422405818376
-0.11956400846306565
-0.12567589484683545
-0.12874939022117693
-0.12889744629783628
-0.12637999115679477
-0.12161089533296862
-0.11502879320505141
-0.10247634678877916
-0.10691661176948537
-0.1099563058321416
-0.11125680193536308
-0.11047898989094254
-0.10736595098543518
-0.10174609553114146
-0.09352660579886607
-0.08268366316009866
-0.06927190636682642
-0.0534520165147085
-0.03550984612481137
-0.015863370192238414
0.005006803640505788
0.026605251258678506
0.0484114147673507
0.06989258895896741
0.09052301558427112
0.1098009712557239
0.1272631615838898
0.14249605811225408
0.15514479458741295
0.16491950511616735
0.17159996581006742
0.17503867484011165
0.17516241922137496
0.17197253822897857
0.1655437361726722
0.1560217329750742
0.1436192633218249
0.12861160546542533
0.1113310541500206
0.09216080206325529
0.07152822942915622
0.049897268391001566
0.027759497648122647
0.005623715695922006
-0.015996553486521035
-0.03658966703246869
-0.055629550984625596
-0.07262638904503084
-0.08720231845919156
-0.09909290366358782
-0.10813905667956322
-0.11426963645147928
-0.11750206443540906
-0.11796229478541889
-0.1158974798872686
-0.11167327747513107
-0.10567967079228052
)
;

boundaryField
{
    "(inlet|outlet)"
    {
        type            zeroGradient;
    }
        "(front|back)"
        {
            type            empty;
        }
    "(top|hills)"
    {
     	type            zeroGradient;
    }
}

