/*--------------------------------*- C++ -*----------------------------------*\
| =========                 |                                                 |
| \\      /  F ield         | OpenFOAM: The Open Source CFD Toolbox           |
|  \\    /   O peration     | Version:  v1806                                 |
|   \\  /    A nd           | Web:      www.OpenFOAM.com                      |
|    \\/     M anipulation  |                                                 |
\*---------------------------------------------------------------------------*/
FoamFile
{
version     2.0;
format      ascii;
class       volScalarField;
location    "0";
object      nutCoeffs37;
}
// * * * * * * * * * * * * * * * * * * * * * * * * * * * * * * * * * * * * * //
dimensions      [0 0 0 0 0 0 0];

internalField   nonuniform List<scalar> 
1000
(
9.720143500456341e-05
8.498496771252727e-05
3.51369177825486e-05
4.3952700652160334e-06
3.8426299398470784e-10
-1.789477177083955e-06
-1.0721783394617476e-05
-2.499530441958899e-05
-4.0030795564657603e-05
-5.477901804856615e-05
-7.327575798251602e-05
-0.00010360060632231539
-0.0001525895297660365
-0.00022175779266155193
-0.0003140913490047409
-0.00043386351294535437
-0.000585083326164619
-0.0007711621786446831
-0.0009945101182406723
-0.0012560666686255658
-0.001554795441528191
-0.0018872145601386216
-0.0022470189827725074
-0.002624918832789242
-0.0030086803978760404
-0.003383438609224508
-0.003732313506140337
-0.004037255312161488
-0.004280253394143665
-0.004444826079019142
-0.0045177252569579595
-0.004490690615267926
-0.0043619196187059655
-0.004136902571765998
-0.0038283156790730735
-0.0034548841851869613
-0.0030393259295857294
-0.0026057649748807464
-0.002224285174523937
-0.002088160986090038
-0.0022848580391916415
-0.002737290141668843
-0.00330104629336435
-0.0037592335011695254
-0.00394479923196089
-0.0038166715647734613
-0.0034007858316084196
-0.0027569224062827715
-0.00202894719434575
-0.0014046657138602654
0.0002333199204286528
0.00022507835571041626
0.00012578078624958774
3.519991313956759e-05
3.2535093034782846e-06
-1.7787829558336981e-09
-3.181843998291335e-06
-1.6665904333828814e-05
-3.880438807886772e-05
-6.602051902947e-05
-0.0001004961991160899
-0.00015163559406866173
-0.0002305683413754652
-0.0003439796856966123
-0.000499862331504818
-0.0007077745871678388
-0.000977126124606371
-0.001316325449217073
-0.0017317465710276275
-0.0022265824253904156
-0.0027996945389865352
-0.003444631874481271
-0.004148934286130357
-0.004893961171737688
-0.005655186043740069
-0.006403043615175114
-0.007104333952612441
-0.007723990374894281
-0.008227443110400174
-0.00858331214063925
-0.008766398697842043
-0.008760658103738427
-0.00856161408641504
-0.008177711574344734
-0.007630156222688962
-0.006951064343227027
-0.006180191749421424
-0.005360725603722332
-0.004608501764874878
-0.004229180042617178
-0.004322030437482803
-0.0046873831533453415
-0.005061762182671271
-0.005184394060844945
-0.0049415397039367145
-0.0043837775885267015
-0.0036194028427958217
-0.0027668111456716844
-0.0019760598412959306
-0.001366370260045818
0.00047588899569120423
0.0004925659974509594
0.0003354202922990326
0.00014258407090307618
3.598450352085111e-05
3.0845531618875435e-06
-1.0903123526054607e-08
-4.7645224158483784e-06
-2.4212050899933422e-05
-5.8550374661579756e-05
-0.00010748455215589082
-0.0001780309919280274
-0.00028398191431666284
-0.0004398762519435719
-0.0006612925713291758
-0.000965392674595377
-0.001369617484950237
-0.0018900375860050594
-0.002539367648925422
-0.0033248023110083605
-0.004245981944682994
-0.0052933476071427635
-0.006447116525692941
-0.0076772039984032685
-0.008943902145335823
-0.010199402927602946
-0.01139009369157494
-0.012459331124260505
-0.013350954504141994
-0.014013338528527446
-0.014403792771279508
-0.014493074145916414
-0.014269178402574466
-0.013739759513609215
-0.012932433473063096
-0.011892734935494656
-0.01067982695587485
-0.009360652800476437
-0.00809566603157444
-0.007283377946612706
-0.0070218097887767795
-0.0069999776919093615
-0.006882624549066919
-0.006438130094252491
-0.0056501840955121225
-0.0046551933839207365
-0.003606615661732749
-0.0026292982586788457
-0.0018361250459535325
-0.0012726992925162822
0.0008585004188706936
0.0009376114121207598
0.0007358791935765551
0.0004083231821510207
0.00016546297495575684
4.338654830024992e-05
4.045322642935152e-06
-8.029512212685349e-09
-5.690694594106101e-06
-3.065715457664244e-05
-7.865357576993795e-05
-0.00015219074861464222
-0.0002632123761118723
-0.00043335745232425335
-0.0006862128546226961
-0.0010471921056368727
-0.0015430865969150035
-0.0021995843875806348
-0.0030382129669190936
-0.00407302337583601
-0.00530747539189113
-0.006732033526259782
-0.008322651916571165
-0.010040630629008828
-0.011833485225055718
-0.01363686193056478
-0.01537746792689332
-0.01697644772846182
-0.018353953549585
-0.019434327646744135
-0.020152083633386282
-0.02045823651387849
-0.020325970444666552
-0.019754866126708934
-0.018772456737526054
-0.017432715945284588
-0.015811355952820592
-0.01399864017699855
-0.012181193470566157
-0.010784219419564488
-0.009901996676405471
-0.00919509886719069
-0.008350527441992672
-0.007231874642028316
-0.005919726501977846
-0.0045876681578945885
-0.003376240687988293
-0.0023707438081793327
-0.0016281636418486252
-0.0011340833610840205
0.0014053282986385943
0.0016016858558442718
0.0014002170619999033
0.0009377869590617801
0.0005073284203724538
0.00021619039544907027
6.227729046565901e-05
7.297484141803877e-06
1.0158615589720562e-10
-4.229731913432401e-06
-2.7915781023768692e-05
-7.626764883536453e-05
-0.00015648685849468951
-0.00029094743465159093
-0.0005074232799681649
-0.0008371201730531192
-0.001314669042400905
-0.0019752088664109504
-0.0028505621126088784
-0.003964943444265139
-0.005330820202361029
-0.006945533460409667
-0.00878900194576438
-0.010822952712723963
-0.01299134609137282
-0.015221963724905972
-0.017429190496873054
-0.019517472926574173
-0.021386289254638303
-0.02293625520285553
-0.02407653112298478
-0.02473318783810535
-0.02485714801867231
-0.024430846096230214
-0.023471849502375967
-0.022032697304676326
-0.020196570602004593
-0.018069403680895067
-0.015832944034785464
-0.013848384122671352
-0.012215693992515028
-0.010691347651261887
-0.009083671496367358
-0.0073774841928075765
-0.005704391469457045
-0.004209816042338157
-0.002975217437457336
-0.0020277775176439448
-0.0013744604381461245
-0.0009629928292570748
0.0021221332018793253
0.0025042646351263118
0.0023842578238697067
0.0018395546085583797
0.0012144498073426932
0.0006887002915445269
0.00031721768839616414
0.00010429444721446796
1.815757439963907e-05
4.013040801592772e-07
-6.635676820883553e-07
-1.0301915671811868e-05
-3.7533247094322645e-05
-9.794201386335842e-05
-0.00021603636623202755
-0.0004229815969436471
-0.0007561437789704716
-0.0012564863385106414
-0.0019646846979297626
-0.0029164278554292392
-0.0041375398324292436
-0.005639622809690688
-0.007416657234345059
-0.009442999753734332
-0.011672601922632671
-0.014039399905453937
-0.01645909164439518
-0.018831766100489054
-0.021046577805420644
-0.022988001796275654
-0.024544120027547467
-0.025616566673835238
-0.026130702758591372
-0.02604481448812099
-0.025356303320082336
-0.02410364635152843
-0.022363389372405618
-0.02024262439503012
-0.017886669778464585
-0.015518462115711944
-0.013255818630609281
-0.011052380624993606
-0.008892375311596139
-0.006858274081701058
-0.005070922864326442
-0.0036036127019812335
-0.002467041745279477
-0.0016401443123812507
-0.0010987136136263384
-0.0007739491282008364
0.002986221770752602
0.0036273989529086548
0.003703026506115318
0.003193771545640968
0.002443796905004479
0.0016808693509135708
0.0010148790886019751
0.0005128329555019774
0.00020479362343219214
5.983512902487123e-05
1.0833986134277299e-05
6.985994709305898e-07
-1.6043489847722214e-08
-3.265511109297785e-06
-2.3429594049315617e-05
-8.354559672644129e-05
-0.00021555800571112629
-0.0004588552962537045
-0.0008572104242989021
-0.0014544438338327343
-0.002289382985284975
-0.0033908401364027103
-0.004773105217963897
-0.006432497500801533
-0.008344982686100748
-0.0104648921313938
-0.012725031422768112
-0.015037911445298811
-0.01729908249737482
-0.01939257932208242
-0.021198876129667938
-0.022605164459341145
-0.023516606286110624
-0.023867336513899013
-0.023629028681231373
-0.022815276920779635
-0.021480968350518402
-0.01971641523100704
-0.01761046244625664
-0.015222782726770155
-0.012690446245359458
-0.010185794181581635
-0.007853633914440092
-0.005822385119513682
-0.004162988019274081
-0.0028747324067886154
-0.0019177282154005423
-0.0012465491773079433
-0.0008249362921316258
-0.0005832867966221555
0.003938232991937899
0.004901766797917569
0.00530508712421325
0.005010991335911003
0.004302109726762622
0.0034081118189366725
0.00246538491047037
0.001595019828828094
0.0009140325036911937
0.0004712478097766477
0.00022903182535546763
0.00011437333434706169
5.496080521433246e-05
1.8594795191172768e-05
2.3639495663177097e-06
-2.470720009752744e-09
-5.217668201299705e-06
-4.085726333150828e-05
-0.0001439481927681803
-0.0003578177806071951
-0.0007276290718734041
-0.001295243691182507
-0.002094035002517822
-0.0031442409955939497
-0.0044491187334331295
-0.005992074589897036
-0.0077350564221653085
-0.009618096153433724
-0.011560856895902973
-0.013466256175469775
-0.015226712616134619
-0.016732970390266052
-0.01788460234400099
-0.018601080848069867
-0.018831443587855264
-0.018560823853573452
-0.01781251322766
-0.016645166040127935
-0.015088238110335574
-0.013067202286686501
-0.010721410339976166
-0.008373544950940065
-0.006260783022792215
-0.0045122117219811115
-0.003149102286342507
-0.0021268505407696574
-0.0013869831705526638
-0.0008817130285298894
-0.0005755133990416926
-0.00040749970417477656
0.004881115636358297
0.006201642990280688
0.007054072747497117
0.007189749768648255
0.00677575480615569
0.005987362646036882
0.004939276607520783
0.00376732343742068
0.002664505389705899
0.0017937606029930398
0.0012067592381556924
0.0008640327370870412
0.0006379355772025825
0.00043475576372907623
0.0002571444862948347
0.00012300453415626714
4.0582676941695094e-05
5.547313929680127e-06
-5.35578580341163e-15
-6.375622733446024e-06
-5.3226323041802064e-05
-0.00018502064425221677
-0.0004457894568896408
-0.0008737980985959967
-0.0014966536167362915
-0.0023272087450526054
-0.003360516112864232
-0.0045719422800014654
-0.005916830340951691
-0.007332003237255158
-0.008739452902973186
-0.010052381548343115
-0.011183173069996548
-0.01205256847966591
-0.01259871096286949
-0.012784454205033713
-0.012601756856612356
-0.012072249646415045
-0.01117875010976772
-0.009773411174360628
-0.007969277705825468
-0.006124830727042583
-0.004491193620993161
-0.0031773889698883413
-0.002179729494693655
-0.0014454690197502648
-0.0009224510451081857
-0.0005728918508826874
-0.00036801848740102103
-0.00026024064134219703
0.005691030775405525
0.007356556005326758
0.008731113355643107
0.009492524734454371
0.009665468699874695
0.009323537195014902
0.008508288582247699
0.0073123198426996135
0.005954305879692002
0.0047024817013907715
0.0037390000456652395
0.0031191139027711774
0.002667271330616067
0.002189948613454014
0.001685436331416793
0.0011999433743450213
0.0007740824140855299
0.0004369942338283344
0.00020232231105770054
6.659884020377907e-05
1.0122886693879119e-05
1.1554787372990717e-08
-5.2002859667014146e-06
-5.0163100300220536e-05
-0.00017723375790822753
-0.0004214725606028976
-0.0008064941335337594
-0.001341369244392595
-0.0020187794640340114
-0.002814580641863534
-0.0036889735975487005
-0.0045895113369271035
-0.005455778419609547
-0.006225530827396647
-0.006841575477201942
-0.007258343894623146
-0.007447224228176341
-0.00739968557822381
-0.007073213897678393
-0.006308315874967402
-0.005170181139080415
-0.0039553749046491934
-0.0028737707594945743
-0.0020112521881221436
-0.0013626190210193785
-0.0008888765969131948
-0.0005549067679716848
-0.0003361042050215071
-0.00021200373023272598
-0.00014932468016866368
0.006240727219795611
0.008182413492761758
0.01006846966334824
0.011564287760806773
0.012565057371873616
0.01302485160884391
0.012879932939789786
0.012127188130153137
0.01093722429010363
0.00962229484413894
0.008482614188008079
0.007699171478863058
0.00707613225936588
0.006315233834699197
0.005403793712242431
0.004415396868387474
0.003425573895592591
0.0025028105520009994
0.001701174729908114
0.0010554359580629974
0.0005791057027620107
0.0002652675823406777
8.975930761088016e-05
1.593031843822557e-05
1.8027799021703158e-07
-2.485366695657493e-06
-3.344252042468678e-05
-0.00012632260461477787
-0.000303945468863021
-0.0005763829449513865
-0.0009402139673734102
-0.001379045362580791
-0.0018653393011492459
-0.002363491220310996
-0.0028339891876923134
-0.0032381581658251016
-0.003542903724602362
-0.0037247617776529586
-0.0037370444802257955
-0.003449635801454082
-0.002879687698430689
-0.0022185293276843444
-0.0016115395075227894
-0.0011223671931089427
-0.0007532004835787573
-0.0004836130870439374
-0.0002950379362566763
-0.0001739677336883084
-0.00010754843655995375
-7.530313048169429e-05
0.00643060802078647
0.008526637473991077
0.010812757769766548
0.013006440401849008
0.014922587077360418
0.016417381690964093
0.01732672561807527
0.017531276421161427
0.01708768464934963
0.016255513466777234
0.01537279981070265
0.014710720949116301
0.01409100691348632
0.01316018839266585
0.011898388843560617
0.010400197262250338
0.008772126977687245
0.007120776155051924
0.005542290921751049
0.00411430126276043
0.0028909733036551954
0.001901288871876546
0.0011502429208220207
0.000622294485014774
0.00028630732324345606
0.00010112395360443875
2.1049756068215147e-05
7.674610142909617e-07
-6.379097560068911e-07
-1.662232870916956e-05
-7.110589072872704e-05
-0.00017735163310453683
-0.0003377948031623525
-0.0005448422058744683
-0.0007826477204347995
-0.0010297415503743163
-0.0012623061166058362
-0.0014576728305204963
-0.0015794515518358263
-0.0015421581639628284
-0.0013332822476986288
-0.0010473488608015538
-0.0007671614241086228
-0.0005344061173626571
-0.00035607210173541775
-0.00022511370522564363
-0.0001340905421178535
-7.687934549458107e-05
-4.656240372800933e-05
-3.2411864086310166e-05
0.006218204944817184
0.00831399627866225
0.01080110509081525
0.013493668187175772
0.016191573263868848
0.018705705247303868
0.020814339752634022
0.02230635065010125
0.023098477056029344
0.02330644643659915
0.023184367873701945
0.022993069778105116
0.022603676668689017
0.02170035056274016
0.020269792473548685
0.0184167112626316
0.016267989674137083
0.013958823283423127
0.011619832920384033
0.009366519941627046
0.00729187773775706
0.005462316870363972
0.0039168049899600405
0.002668553160630797
0.001708740850402826
0.0010114117338096721
0.0005388003414517607
0.0002465570019583674
8.835572399200786e-05
1.9737578873755667e-05
1.0948382544341746e-06
-1.641126442823515e-07
-8.220375850085244e-06
-3.820470891362341e-05
-9.632964469777484e-05
-0.00018081693604126182
-0.00028358510792204374
-0.0003925554106999909
-0.00048741062803402677
-0.0005235853237531481
-0.00048107547469461236
-0.0003919176920318449
-0.00029261683121670104
-0.00020522493148760862
-0.00013626491564435516
-8.496283492267668e-05
-4.9435673648479904e-05
-2.7583934711853036e-05
-1.6426899877399987e-05
-1.143480135122182e-05
0.0056347162251788215
0.007575182406722962
0.010021246878319979
0.012893013617619947
0.01602895960281248
0.019253324208728623
0.022347726967146157
0.025068374557067254
0.027220206415533424
0.028736214576839506
0.029685060584264827
0.03020239401875252
0.03021985907702689
0.029548539671896773
0.028195430478732044
0.026261245094404
0.023876904698110914
0.021189113429318868
0.018346584395638493
0.015488279780356174
0.012734634195998597
0.010181789763860381
0.0078989157101281
0.005928049095947273
0.0042861115579073536
0.0029684965997709015
0.001953504561360497
0.0012072303826786354
0.0006882297995854694
0.0003517618952534808
0.00015334443339193397
5.160206443947037e-05
1.0418353454955504e-05
4.203527550758168e-07
-1.843037492648837e-07
-5.4366108828115194e-06
-2.213959199690328e-05
-5.102374479581995e-05
-8.677427038565692e-05
-0.00011335756642191735
-0.00011720621389645589
-0.00010248171153667808
-7.967937002278563e-05
-5.705333045140264e-05
-3.8104898434615325e-05
-2.357659681905425e-05
-1.3463156811305445e-05
-7.362744074341955e-06
-4.378174002860128e-06
-3.1171616838003e-06
0.004779465521387662
0.006442580825031689
0.008624700307974022
0.011327262909234005
0.014449543751820408
0.017866500049361453
0.02141147747529592
0.024871386887658217
0.02800730430428188
0.030606769315010274
0.032533964163002305
0.0337413712815382
0.034207025182279846
0.03390117506067763
0.03285290293042202
0.031144230960776943
0.02889106528890734
0.02623023754833238
0.023306736768442218
0.020262422122985263
0.01722706340093856
0.014311773629253594
0.011604964772731164
0.009170439662397917
0.007047525114315245
0.0052528659655136836
0.0037834233821572973
0.002620436035423569
0.0017335863540821883
0.001085218475429428
0.0006341384419957133
0.00033883884524490293
0.00016012327071639743
6.304537188612303e-05
1.8256356274716366e-05
2.749957787636797e-06
2.5407682277074605e-08
-3.1352481294574326e-07
-3.328564322032861e-06
-8.71178842961587e-06
-1.264403863494921e-05
-1.3324253855032923e-05
-1.1547414481980799e-05
-8.823883304609006e-06
-6.114961977041627e-06
-3.840556409422797e-06
-2.195780078337977e-06
-1.2121333802589617e-06
-7.612450275899611e-07
-5.985213622978197e-07
0.0037917578230755693
0.005111004684584664
0.006879576757610995
0.009138984882184679
0.011840366965771114
0.01491346559162207
0.018257716745767455
0.02172595552820147
0.025105324377390607
0.028130376234731115
0.03053920419774126
0.03213997898180395
0.03292952153306568
0.03299419624210861
0.03237255616232398
0.0311179106406722
0.029315644245988873
0.027073667645852104
0.024512442813958025
0.021755771821559553
0.018922851955674988
0.016121842925124776
0.013445063500644927
0.010965761086813406
0.008736490150666389
0.006789117197255896
0.005136179744242493
0.0037735677622152968
0.0026838543393631273
0.0018400652476571059
0.0012093173645900182
0.0007561110818745497
0.00044504874186187615
0.00024292072346552364
0.00012019447275518664
5.195466088048799e-05
1.834804187427375e-05
4.581594550595143e-06
5.494392527267908e-07
4.9251908879904334e-09
-1.649499439782257e-08
-1.1983784423973429e-07
-2.1572505547062966e-07
-2.4349821981070643e-07
-2.1451534044587132e-07
-1.5747625535261243e-07
-1.0194050733201427e-07
-6.727413169335722e-08
-5.8633702704193995e-08
-6.906457941756608e-08
0.002811461495419095
0.003779712464431222
0.0050824819193590635
0.006764869855652159
0.008806790654134805
0.011174481854872171
0.013817361571966166
0.01665164849592184
0.01952781264385133
0.02221869850925535
0.02445849244334607
0.026017970314710762
0.026892582261194235
0.027201087193167668
0.02697443097107971
0.02623683358672834
0.025038001769178968
0.023447741463721743
0.02154971030115473
0.01943521205095132
0.017197196867150325
0.014924811254581985
0.012698697088947903
0.010587164148099836
0.008643554077752337
0.006904908310187558
0.00539205347823491
0.004110991476462292
0.0030552609581140137
0.0022088605397519935
0.0015493824879023032
0.0010508439159593926
0.0006861329754634613
0.0004288758687674741
0.0002547725796209935
0.00014246454095816045
7.401344304911887e-05
3.506030432318001e-05
1.4822541233591549e-05
5.651726526968851e-06
2.0324759895139153e-06
7.114122837534387e-07
2.454930709721621e-07
8.195278404719211e-08
2.5515903571550894e-08
7.003923002331098e-09
1.3455522352570366e-09
3.788625399729176e-11
-1.724491095409934e-10
-3.613121793209266e-09
0.0019456594591151636
0.0026023092153539024
0.0034731085989395923
0.0045875048696086655
0.005935288988445842
0.007498871698283631
0.009253338964324552
0.011155771595397471
0.013119982080196982
0.015001204126659373
0.016616060699666372
0.017793688773322637
0.018524556414225644
0.018893982038617863
0.01891628972250218
0.018595360333743045
0.01795173296279306
0.017020570405760372
0.01584892427661215
0.014492360408629579
0.01301127384688471
0.011466971905787209
0.009917905078704695
0.008416253705397638
0.00700519556823585
0.005717168353076357
0.00457324011446793
0.0035835777324141212
0.002748801089657144
0.0020619351666559655
0.0015105827006625086
0.001078991359454229
0.0007498668395850297
0.0005057594365914952
0.000330069285094402
0.0002077206802892363
0.00012556457762458243
7.25790276346925e-05
3.9977034107076396e-05
2.114420628972864e-05
1.0922467046224626e-05
5.562391782934537e-06
2.7882792311379446e-06
1.3560292980889812e-06
6.243226994745003e-07
2.61626179693949e-07
9.165814882971329e-08
2.1382546374521743e-08
1.3940244915804802e-09
-7.968103012856304e-11
0.0012532056138094322
0.0016632102756691536
0.002188520098906775
0.002840496433243529
0.003611062157413434
0.004488442875136177
0.005458167504203707
0.006498453460487664
0.0075684256276184105
0.00860032217376158
0.00950744750448811
0.01020622441304005
0.010686425163251464
0.010982439364253247
0.011094528038731927
0.011017699657215132
0.010755578857984683
0.010320380931509209
0.009732268844100299
0.009018121908403471
0.008209700878064153
0.007341408185516782
0.0064478526279098895
0.005561471096156913
0.0047104920056222485
0.003917488130834577
0.0031986112871620342
0.0025635452608092674
0.0020160711685157013
0.0015550368871528207
0.0011755550631166291
0.0008701902848599684
0.0006300371847137048
0.0004455910527391533
0.00030740393172229636
0.00020656011447095211
0.00013498978593506225
8.566678331585841e-05
5.270846797182193e-05
3.143675273025569e-05
1.821983742548912e-05
1.0265725385607218e-05
5.591127227705817e-06
2.9015545146682855e-06
1.3987897974428271e-06
5.995857770503932e-07
2.0969268974526785e-07
4.872639782320932e-08
3.644280122858843e-09
-5.1367954532944586e-11
0.0007475117118761114
0.0009814632052701018
0.001264014128988715
0.0015949637994790364
0.0019682448227540082
0.002376148046531514
0.0028099693214868613
0.003259342565331449
0.00370995288921379
0.004142169901051524
0.004532765178570371
0.004859000948289579
0.005112668972195904
0.005294556492665352
0.005398832266304874
0.005419531909524808
0.005354052826426225
0.005203735966778256
0.004974105573839944
0.0046746927719359035
0.004318404347267132
0.00392053592745415
0.0034975325448837464
0.0030657201311897597
0.0026401392161286485
0.002233629833954841
0.001856266171353332
0.001515107170951305
0.0012142799863703532
0.0009552666299469428
0.000737364835947846
0.0005581880870274811
0.00041417930513663203
0.00030107250950835206
0.00021429212332308125
0.00014927499283368372
0.0001017200759457227
6.776409809693561e-05
4.407697386155317e-05
2.7916187078859967e-05
1.715998762237718e-05
1.0188860236911026e-05
5.787825608723336e-06
3.091149572244852e-06
1.5062673274997093e-06
6.351461353302258e-07
2.087481315450478e-07
4.121834624533088e-08
1.5870599747585895e-09
-7.395734166598893e-10
)
;

boundaryField
{
    "(inlet|outlet)"
    {
        type            zeroGradient;
    }
        "(front|back)"
        {
            type            empty;
        }
    "(top|hills)"
    {
     	type            zeroGradient;
    }
}

