/*--------------------------------*- C++ -*----------------------------------*\
| =========                 |                                                 |
| \\      /  F ield         | OpenFOAM: The Open Source CFD Toolbox           |
|  \\    /   O peration     | Version:  v1806                                 |
|   \\  /    A nd           | Web:      www.OpenFOAM.com                      |
|    \\/     M anipulation  |                                                 |
\*---------------------------------------------------------------------------*/
FoamFile
{
version     2.0;
format      ascii;
class       volScalarField;
location    "0";
object      nutCoeffs50;
}
// * * * * * * * * * * * * * * * * * * * * * * * * * * * * * * * * * * * * * //
dimensions      [0 0 0 0 0 0 0];

internalField   nonuniform List<scalar> 
1000
(
0.0005518451472296997
0.0005940638066838341
0.0004222640782929295
0.00010479635313388932
1.1565199014516776e-07
-7.384952634879048e-05
-0.0006142048664525164
-0.0016517801717196362
-0.002625760959061046
-0.0030407549818905733
-0.002936853593628284
-0.002592888126797068
-0.002132360856501399
-0.00158720388534042
-0.0010405997725507917
-0.000578473077474357
-0.00025417509881108614
-7.5633733576011e-05
-9.456571822469723e-06
-8.502776541210798e-10
5.171466592220701e-06
3.4765230351283766e-05
8.682933453563795e-05
0.0001374101198831886
0.00015918855471267382
0.00013980187756491256
8.995207963156612e-05
3.677439575416234e-05
5.656022072280053e-06
-3.992477872276305e-10
-9.91648734026351e-06
-8.180301342074856e-05
-0.00028053440845105367
-0.0006499671468476449
-0.001189622659144446
-0.001846485979489355
-0.0025256898374348496
-0.003115860361491587
-0.003523113161091094
-0.003687200943494997
-0.003448259155653437
-0.002599231741357624
-0.0013449801992591664
-0.00035863960548819133
-1.5696576874074e-05
8.585936524648723e-06
0.00018694007231334533
0.00045737985782706296
0.0005037093042323052
0.0004209275935629592
0.0005086761564738961
0.000640109353332405
0.0006824879554451416
0.000415032881629911
8.514213296792251e-05
1.6539037415627363e-08
-7.52313168372586e-05
-0.000577692295666849
-0.0014966642038643158
-0.0023178032646679805
-0.0026445291043234865
-0.0024789836217418548
-0.0020240028941079556
-0.0014621898202418135
-0.0009122819906498518
-0.00046581425109976186
-0.00017442658582466928
-3.5918051949451506e-05
-9.82339449533373e-07
1.8031625467914295e-06
3.350431227404302e-05
0.00011932503823551615
0.00024140759394743053
0.00035264960547515115
0.0004041295037065927
0.00037217290434926137
0.00027132818381512993
0.0001466008941666285
4.871894619623937e-05
4.87722656187533e-06
-1.225122694145924e-07
-2.232683762200964e-05
-0.0001365298210609773
-0.0004033114675753939
-0.0008398978790344919
-0.0014074252828847906
-0.002019541394717097
-0.0025680469985881874
-0.002924074822397015
-0.002861405847980547
-0.002213401812454774
-0.0011833056975106275
-0.0003272481768497776
-1.550240376105319e-05
6.578069483442561e-06
0.00016713606417187218
0.00046734137840667245
0.0005587085752833119
0.000413853680187825
0.00028888789486063984
0.00029176086897643737
0.0004366470593799922
0.0006702297440306558
0.0007114151176007825
0.0004079869936747833
8.757384760246368e-05
1.5614154226670267e-07
-4.8687029191154834e-05
-0.00040292358111693324
-0.0010095296882844554
-0.0014581544708606032
-0.0014820891855852358
-0.001202121331273185
-0.0008353361230768587
-0.00048517979477935536
-0.00021646641569053536
-6.068260623047423e-05
-5.116489035297855e-06
1.3541790813923804e-07
1.9079789645503077e-05
0.00010018412257233053
0.0002535064401570321
0.0004454585073159665
0.0006141247039232972
0.0006981962451630842
0.000665852028645466
0.0005297195585616596
0.0003407323055836913
0.00016396019871257612
4.820568700588799e-05
3.948377593883039e-06
-2.127250909790804e-07
-2.1589094615234887e-05
-0.00011608297368778519
-0.00031235940957974486
-0.0005986416903550007
-0.0009266654017170614
-0.001229484783198449
-0.0014083889985752871
-0.001249582441297351
-0.0007216903669181171
-0.00020153186500298067
-6.7859402074471076e-06
1.024605201857789e-05
0.00017403309191165746
0.00047272270160615367
0.0005945282955277354
0.00041301320619101337
0.00019738126042863585
0.00010605138319257774
7.837626087656765e-05
0.00015843097922827492
0.00039141922371339693
0.0006918527256123676
0.0007224976406579567
0.00043057930050718874
0.00011394575076350373
2.3162067656307234e-06
-1.2761157775549787e-05
-0.0001525530503198233
-0.000364411745720102
-0.000435295819593882
-0.00035635801752497163
-0.00023618397967561347
-0.0001228210389057175
-4.274535713632902e-05
-5.984049566796833e-06
-1.126864943128135e-15
6.451676642863493e-06
4.9833427916505035e-05
0.00015398435336629393
0.00031614158401261575
0.0005040583489549581
0.0006666750582956914
0.000754234691963456
0.0007389102020339661
0.0006263935363670152
0.00045309495749673524
0.00027046821112030955
0.00012403461634423013
3.678276624556688e-05
3.906281429331569e-06
-5.105863090594642e-09
-6.1064117850811445e-06
-3.642372375021285e-05
-9.552033335915742e-05
-0.000171217535515599
-0.00024238030028410178
-0.0002742405805933008
-0.0001938478993659244
-5.097574996576767e-05
-1.9106224862944926e-07
2.4716124427066434e-05
0.00020967184765167924
0.0004940485120582826
0.0006096584567678329
0.0004306378365781246
0.00016135059823686203
3.494533527549401e-05
8.964875616465208e-06
1.6776643102634486e-06
1.3027643793440364e-05
0.00010253692279722539
0.0003736794564875436
0.0006740738231052756
0.0007197284538858736
0.00047471091933813013
0.00016810978050607215
1.786744836343277e-05
-4.41046634277815e-09
-9.414127411646348e-06
-2.3753594711247077e-05
-2.2138540177870787e-05
-1.397385644834385e-05
-5.6382576300818485e-06
-8.319767905586808e-07
4.2310216806342777e-10
1.8113267619110656e-06
1.4387606576453201e-05
4.8556109542314944e-05
0.00011043419092485219
0.0001964515226861083
0.00029199972227876586
0.000375099494089305
0.0004239731109886967
0.0004253014060164991
0.0003793553231837351
0.00029961914681314226
0.00020720430414932438
0.00012281811805983512
6.0010726634876363e-05
2.240015951215456e-05
5.361203457055865e-06
4.59079072236646e-07
-2.711854432346907e-10
-3.7129763774377137e-07
-1.586328944118487e-06
-2.7365162498308952e-06
-2.2951002532129854e-06
-8.581571147628333e-08
3.441241646804862e-06
6.706275624290256e-05
0.0002703383041134287
0.0005190150174864092
0.0005940470689450555
0.000417302405383062
0.0001524459040265664
1.6008018163180327e-05
1.7615779613973074e-09
-1.1313430546867912e-06
-1.1819627575274344e-05
-1.7456353157883617e-06
1.796509575724723e-06
7.742651735728237e-05
0.00032003907083552065
0.0005929514751584296
0.0006761967611075422
0.0005107875695065183
0.0002502174530997194
7.692955137450058e-05
1.594887126600194e-05
3.6227938653752474e-06
1.4026251159960094e-06
7.414748766168049e-07
5.71836675810588e-07
7.209316498008313e-07
1.3195685583096423e-06
2.8154944487284206e-06
5.976957947376157e-06
1.170672977341867e-05
2.059329046858545e-05
3.2355272861643725e-05
4.5512189626088554e-05
5.758289243044418e-05
6.584406693198085e-05
6.834019841739192e-05
6.464390513545419e-05
5.597726104249003e-05
4.4651221451608736e-05
3.31459909802608e-05
2.3308013317179432e-05
1.5999694557723998e-05
1.1237032842330971e-05
8.600631716401105e-06
7.655108649102607e-06
8.23474067938676e-06
1.059867966859424e-05
1.5500484642086527e-05
2.58743151651787e-05
5.8914366039895035e-05
0.00015663216234031917
0.0003389116989596234
0.0005142571935127358
0.000527292087090557
0.00035061360727748427
0.00012501531352701107
1.012165377101582e-05
-7.309283902468221e-07
-3.357855647227939e-05
-7.730886271157172e-05
-0.00018589023986671858
-0.00011135139283480608
-1.7368541198111374e-05
1.2696957289652883e-07
4.513980448914539e-05
0.0002185727397059548
0.00044310894632253823
0.0005586094609206579
0.0004888246531425161
0.0003183697000035122
0.00017321705672439632
9.286434003835088e-05
5.043575022767595e-05
2.4871374296301035e-05
1.0500681560855672e-05
3.5681499516672763e-06
8.550833055265803e-07
9.872627450639185e-08
3.461166978182852e-10
-1.2058476519158321e-08
-8.723737977043882e-08
-1.9774324392812593e-07
-2.8516457381675693e-07
-3.166825666600752e-07
-2.9019908925957914e-07
-2.2192346448748748e-07
-1.3535098005859894e-07
-5.6341131851167044e-08
-9.068137660828582e-09
8.743691913071937e-12
3.12054136975598e-08
3.203469542831342e-07
1.4663102286864428e-06
4.681627441509498e-06
1.2023963795607664e-05
2.6450247163933437e-05
5.1503736133062884e-05
9.051734589433519e-05
0.00014721588842008546
0.00023394584975239017
0.00035108846088720166
0.00043469341004394546
0.00039522861808002414
0.00023746192733067043
7.466065880233382e-05
3.847737154324028e-06
-3.072572293507743e-06
-8.191998464578468e-05
-0.00025836985193260605
-0.00037613281983345416
-0.0006576497045297189
-0.000515424646297682
-0.00023860085845302183
-4.1591496059850886e-05
-8.911594216292001e-08
1.3326702522792526e-05
0.00010356485710199489
0.00025288791870756443
0.00035817712537109317
0.0003501256219697686
0.0002625481049213382
0.00016367641490112238
8.626724854736766e-05
3.595363653651255e-05
9.917683414953343e-06
9.826998755824122e-07
-2.269015180966662e-09
-1.723767171483875e-06
-1.0389562746699109e-05
-2.857863257118733e-05
-5.51219767679921e-05
-8.589868423182897e-05
-0.00011522494211455321
-0.00013742625462784172
-0.00014821476136769106
-0.00014560938284830844
-0.00013028001392733558
-0.00010531941443325113
-7.553196403224283e-05
-4.6370914201733485e-05
-2.268835576640182e-05
-7.493188104644244e-06
-9.658738919910777e-07
1.4187818844656676e-10
1.479402448369925e-06
1.1303872916611363e-05
3.7088268891850444e-05
8.391693301744823e-05
0.0001509686923696851
0.0002216465159695733
0.0002561933829016877
0.00021485926355410876
0.00011300030322527892
2.59132473648927e-05
1.7108560595487384e-07
-1.0178073742788924e-05
-0.00012037539826394469
-0.00039855742241291174
-0.0007192457502384692
-0.0008888812879944564
-0.001297192810894348
-0.001137521366696483
-0.0007611177035382376
-0.00034419769304557213
-8.717380260484825e-05
-5.428566411687235e-06
4.4096425728608626e-07
2.4339375504278427e-05
8.601137798178904e-05
0.00013602020181063232
0.00013281824751180292
8.879787231374261e-05
4.234428942953428e-05
1.3183894534117932e-05
1.507113211076275e-06
-2.1968015314669693e-09
-2.932793548367031e-06
-2.011144910666313e-05
-6.186044024604662e-05
-0.0001325875242137231
-0.00022875840747417178
-0.0003389705934583875
-0.0004462376700483577
-0.0005319443253376215
-0.0005803767747798436
-0.0005825865556517589
-0.0005385218282762295
-0.0004568898956844013
-0.0003528600623233954
-0.00024429848794291356
-0.00014756446328381207
-7.396546450492332e-05
-2.7732462044784684e-05
-5.92928724935061e-06
-2.0115485716671598e-07
2.2297257609669685e-07
5.176659431003513e-06
2.0811178763257565e-05
4.682870311521564e-05
6.746413330161831e-05
5.883821943388604e-05
2.5987413079719112e-05
2.4322109199461905e-06
-4.4002101456612476e-07
-3.042531999198603e-05
-0.00016971793723672134
-0.000471528448718653
-0.0008840460885074264
-0.0012410016533469955
-0.0014187587864336912
-0.0017752010463331727
-0.001646227393461634
-0.0013310588471469994
-0.0008815686998860094
-0.00045356891602705917
-0.00016539468735036572
-3.2940515562609694e-05
-1.1007310645606928e-06
4.775359812468466e-07
7.867320287224205e-06
1.500670798322355e-05
1.1741501998101387e-05
4.743227172750569e-06
7.525254861003462e-07
1.0969529337574362e-12
-9.844918723546032e-07
-8.944860897049372e-06
-3.266577860063411e-05
-8.043375846867142e-05
-0.00015680334846033688
-0.0002597445711820619
-0.0003793587032450736
-0.0004989613542923063
-0.0005985603383416979
-0.0006598224825358373
-0.0006709924028621955
-0.0006301330906594544
-0.0005455930042808162
-0.0004335676767787776
-0.0003136241382743851
-0.00020370164557259913
-0.00011615593320543769
-5.593898214202845e-05
-2.1137411032718452e-05
-5.305452434809222e-06
-5.155782725343132e-07
2.1101366838877486e-11
3.6914432374265805e-07
1.7976687746561028e-06
2.2677551967921027e-06
4.6541023601842264e-07
-7.11599490456548e-08
-9.373817947601711e-06
-6.763576062677127e-05
-0.00022657722316007993
-0.0005126779880755172
-0.0008938770606417329
-0.0012749364404597428
-0.0015592543583727461
-0.0017176930566709038
-0.0018223615377370697
-0.0017333039364691174
-0.00156633925174278
-0.0012785390148457238
-0.0008987352384153073
-0.000527397542751243
-0.00024680600617580474
-8.42934267651087e-05
-1.796344181556821e-05
-1.7759941165098864e-06
-3.55811713964476e-08
5.552010048779638e-12
3.172602135763678e-11
-1.9992349625811184e-09
-8.085399245567829e-08
-6.813795164939953e-07
-3.0557276410156197e-06
-9.517423363511156e-06
-2.3140220112111726e-05
-4.673483745124782e-05
-8.133944443353249e-05
-0.00012485819514141278
-0.00017161242698101695
-0.0002132990517757395
-0.00024123253810128857
-0.00024910030610019254
-0.0002351129872173444
-0.00020262614349968866
-0.00015895317174828243
-0.00011289429145926575
-7.203244602348027e-05
-4.086621442055265e-05
-2.0362650846269622e-05
-8.8086567402741e-06
-3.3047325879678724e-06
-1.1190618967607161e-06
-4.001575343295269e-07
-2.1673195095968903e-07
-2.7470636258841313e-07
-1.0178844672017568e-06
-6.06327785752256e-06
-2.930681742454979e-05
-9.959253943335773e-05
-0.00024830428442347097
-0.00048673889418756326
-0.0007903048495101184
-0.0010974262250928893
-0.001342464798234443
-0.0015190194254760588
-0.0016556038483108153
-0.001436172853866349
-0.0013690709533537317
-0.001319949190993053
-0.0012224480805935608
-0.0010205236924833525
-0.0007474395783158477
-0.00047226150956126593
-0.0002511762152562641
-0.00010892144797819197
-3.7640778398305406e-05
-1.0341661287428553e-05
-2.184660632123567e-06
-2.381245974250987e-07
-8.597490869117004e-10
1.8668703905411257e-08
9.352214950297709e-08
1.0743981221760502e-07
4.143867292623091e-08
7.968978329594967e-10
-1.5495394689474672e-08
-2.6100549187057954e-07
-1.1035224960256674e-06
-2.687673656373208e-06
-4.682795662443534e-06
-6.357704349229439e-06
-6.975994164410932e-06
-6.248887804206946e-06
-4.519712321598357e-06
-2.543834704689235e-06
-1.0244470947080484e-06
-2.4044488070816276e-07
-1.5805555331310343e-08
2.0098127803347808e-10
1.8289275185286708e-08
3.490392251029202e-08
1.0827085471804873e-08
-3.2466553382087393e-10
-1.6216448567474365e-07
-1.706632784341595e-06
-8.299632020675578e-06
-2.9330136288154267e-05
-8.211353688647487e-05
-0.000185699966966521
-0.00034814022432343286
-0.000556639213368476
-0.0007746762249543768
-0.0009541312923473867
-0.0010719264038009696
-0.001169584849425422
-0.0012898701356108845
-0.0008562893801728351
-0.0007982689628786563
-0.00079152038752984
-0.0007885575222981898
-0.000724457725195867
-0.0005926822479763403
-0.0004260677246244736
-0.00026442750111322646
-0.00013644968092929236
-5.467837381960122e-05
-1.4680167949903417e-05
-1.5577241784548113e-06
7.31087665707774e-11
1.3190653899291076e-06
7.610721492884574e-06
1.8315750586518994e-05
2.9811300595333804e-05
3.8342311016520975e-05
4.189940349573148e-05
4.062655094630121e-05
3.612743266441566e-05
3.040706531134503e-05
2.5074032605935727e-05
2.10518733572686e-05
1.8699349805953347e-05
1.8091250312556995e-05
1.9249565472217406e-05
2.2217189736070992e-05
2.6942111871737142e-05
3.299936325373363e-05
3.9276129042081675e-05
4.387742284428985e-05
4.454262229952028e-05
3.965423914280761e-05
2.946734902894977e-05
1.6744652839618263e-05
5.9356131528725505e-06
6.196384218394304e-07
-2.15466951423335e-08
-3.3558991661170223e-06
-2.0917821875663154e-05
-6.497309331125861e-05
-0.00014321865060580705
-0.00025389427345058195
-0.0003831093104954674
-0.0005046934089119875
-0.0005919606217851631
-0.0006434255825637473
-0.0007027505728377566
-0.0008042434454271835
-0.0003620241093169112
-0.00031767058254463816
-0.0003106327094136706
-0.0003173883401178264
-0.00030185062263654
-0.00025408498921204134
-0.0001855156887272511
-0.00011407426114644402
-5.4547825423400066e-05
-1.658218244258754e-05
-1.5855206972964437e-06
2.6097794430447192e-08
5.085094849912111e-06
2.6444099398175037e-05
6.527967352736053e-05
0.00011365255269550228
0.00016008184454103166
0.0001948762895234824
0.0002132688034771518
0.00021581900184398283
0.00020681166494835842
0.00019195384822972715
0.00017649593281201265
0.00016429434380624356
0.00015772722911339135
0.00015804936908016392
0.00016574369580803935
0.00018057000044740387
0.0002012238463790762
0.00022474778725326257
0.00024609845884370255
0.0002584488042040828
0.00025469600601186055
0.000230121860872548
0.00018529142792123358
0.0001276095046688009
6.999137565015043e-05
2.6201883705184565e-05
4.302383306754536e-06
1.0256387838432436e-08
-1.4829576475347108e-06
-1.3758727867340232e-05
-4.353481868580215e-05
-9.05412267012657e-05
-0.0001481841095504727
-0.00020371664183073865
-0.0002446714262733288
-0.0002724317681730946
-0.00031228905762579855
-0.00038512318476651125
-9.027870304830888e-05
-6.797752979273685e-05
-6.021541438346464e-05
-5.842420032487137e-05
-5.2287281313394606e-05
-3.94624299298523e-05
-2.3688715202014265e-05
-1.0067627179869387e-05
-2.0164044235227577e-06
-5.389409928558946e-09
1.2556518578944237e-06
1.4215991888751249e-05
5.0601044680768876e-05
0.00010873312458181912
0.00017587762570514393
0.00023589615882625738
0.00027576606850988655
0.0002897604455326678
0.0002799379360264404
0.0002536939124610229
0.00022017617423181855
0.00018731851333137967
0.00016041205371099707
0.000142172883201982
0.00013366303747618018
0.00013534057719080312
0.00014773973688822077
0.00017153025212586351
0.00020687239304591673
0.0002521662495077049
0.0003026257571528894
0.0003495099726755062
0.00038099435353816793
0.00038520396954542634
0.0003547956483015732
0.00029123730096183896
0.00020635763014851229
0.00011950646646367516
5.1189658056592034e-05
1.3682281982333607e-05
1.3514052510849203e-06
-3.610409725016745e-10
-1.3629804820892644e-06
-8.0878853795451e-06
-2.105903587054112e-05
-3.7509569080801454e-05
-5.3161777635395924e-05
-6.74855007337576e-05
-8.907801317325391e-05
-0.00012791752830057613
-6.572582944022738e-06
-2.6068503855982343e-06
-1.2299497055395628e-06
-6.649831876203541e-07
-2.3256006764549476e-07
-1.2246849433608172e-08
2.2191185195957995e-08
7.406014028189438e-07
4.4400531860816416e-06
1.5684817169875994e-05
4.1149742635049154e-05
8.545414648790404e-05
0.00014158128420074158
0.0001921475579466778
0.00022211126687323666
0.0002239935511500269
0.0001996168828586156
0.00015824386846703366
0.00011197449238379298
7.095717740927205e-05
4.058625964598474e-05
2.1412115555206054e-05
1.097862100883358e-05
6.080710921482963e-06
4.271083378107167e-06
4.369603823560976e-06
6.4798079733828955e-06
1.2070565439069982e-05
2.4110270811314798e-05
4.663245050082415e-05
8.310960441487707e-05
0.00013379245827407254
0.000193265289655829
0.0002499992763649584
0.000289062642417498
0.0002974884176794083
0.0002700617470012278
0.00021256724194957416
0.00014095562537890248
7.695193938615228e-05
3.4219087234976294e-05
1.176901429860774e-05
2.626693012022483e-06
1.83986385683161e-07
-3.539346814149391e-09
-4.449226504192852e-07
-1.984536494514992e-06
-4.760907563360107e-06
-1.0317124660350278e-05
-2.2194101951474282e-05
9.700940779208563e-08
1.0613742828746149e-06
3.0633895537838306e-06
5.913193869299684e-06
1.0495080076500727e-05
1.8200757960614264e-05
3.0413654047982167e-05
4.830883848576995e-05
7.312140540385025e-05
0.00010561936683358329
0.00014339817460780623
0.0001774146469624535
0.00019242066557319593
0.00017942544979368305
0.00014202151189820407
9.262322628960313e-05
4.665818943973447e-05
1.5602132454515418e-05
2.1393649345779453e-06
9.493626868218923e-11
-1.5225519226371982e-06
-1.0975398833210917e-05
-2.9802881459278527e-05
-5.178840540992122e-05
-6.70467729477487e-05
-6.810558264463645e-05
-5.444270018331564e-05
-3.279442816147469e-05
-1.3060088524320997e-05
-2.236527566726331e-06
-2.0697952179587617e-09
1.3668932038974052e-06
1.2569049720463794e-05
4.078183358804764e-05
8.47422566700602e-05
0.0001341784070801945
0.0001739643354964355
0.0001908418531807787
0.0001792345132710526
0.00014532829701408224
0.00010432621631735775
6.779608844302417e-05
4.005061921298672e-05
2.10822657291751e-05
9.498644301026268e-06
3.4543868887696114e-06
8.868922638020607e-07
8.698221338361665e-08
-1.9197203794224237e-09
-4.819650007426431e-07
1.2689734549892462e-05
2.4832876683963152e-05
4.0296115318189766e-05
5.872903722464791e-05
8.160228310895624e-05
0.0001094802607072576
0.00014097383781920122
0.00017288869377930332
0.00020091407355390232
0.0002193666300236281
0.00022070030727194514
0.00019774421436942588
0.00015048858490496507
9.160424822354793e-05
3.95670322913419e-05
8.630168001620198e-06
1.1745117499171672e-07
-1.7730404082627852e-06
-2.6217068233673282e-05
-0.00010422756996174709
-0.0002535764237016489
-0.000466901296492951
-0.000709083028607858
-0.0009262226796684275
-0.0010633669919758862
-0.0010839877700780853
-0.0009831729454153407
-0.0007890743972581436
-0.0005522009917063696
-0.0003272500677966189
-0.00015508223359096267
-5.181525193714334e-05
-8.50214553291855e-06
-6.099794778818349e-08
1.4725649102121473e-06
1.5379964112377088e-05
4.669972855298517e-05
8.772780811315488e-05
0.00012421630436323692
0.00014341270948646794
0.0001425342882596296
0.000126916064249457
0.0001034060444897589
7.756079621699271e-05
5.345221201663158e-05
3.375075087645436e-05
1.9374333924006875e-05
9.716833339009916e-06
3.671233979404024e-06
7.183763980227578e-07
4.854833464808042e-05
7.4954586792772e-05
0.0001066450005146761
0.0001425306874215674
0.00018153718435164743
0.00022040574784597334
0.0002534641119263678
0.00027369734729075664
0.00027438455998018166
0.00025078860873649583
0.00020261332584991788
0.0001371628813507972
7.07543503489449e-05
2.242318580517112e-05
1.8820261605330022e-06
-1.934128340472471e-07
-1.680047200470475e-05
-0.00010005003708957675
-0.00030620344826490757
-0.0006739377818933331
-0.001203490454722823
-0.0018455199727173183
-0.002505859340811243
-0.0030666009039844707
-0.003417481384168542
-0.003487150958778926
-0.0032635548028901893
-0.0027964828148816473
-0.0021818517145283174
-0.0015336722505474658
-0.0009536283728454494
-0.0005080254036140154
-0.00021840669001506297
-6.658242499912744e-05
-9.924054957164733e-06
-5.444404674423689e-08
1.7215081618561248e-06
1.6355756753548743e-05
4.691825247706324e-05
8.398679947713283e-05
0.00011513814213964243
0.00013264251888887358
0.00013456210426397657
0.00012313034033113076
0.00010285193870104443
7.895283247657824e-05
5.5850647301298705e-05
3.614000160797829e-05
2.069535631557952e-05
9.895326982585794e-06
8.440774247678454e-05
0.00011782086681134776
0.00015587836327191065
0.00019581366324504052
0.0002333753236348162
0.000262629285043173
0.0002768303861597168
0.00027012780509417573
0.0002397128064731077
0.00018797994114662635
0.00012394989294483338
6.237929880464094e-05
1.897046262513066e-05
1.3513764765926422e-06
-3.271042361696884e-07
-1.9097922579847313e-05
-0.00010979025096917494
-0.0003379747534493039
-0.0007603356453585158
-0.001401704359225741
-0.002236734276725295
-0.0031839987135089762
-0.004116805574346554
-0.004889308658078602
-0.00537090810274155
-0.005478600991532443
-0.00519736793509349
-0.0045825301135334826
-0.003744007886632493
-0.002817919789958152
-0.001934598760485408
-0.0011921214156561059
-0.0006418050705175917
-0.0002876508927034445
-9.732530615579896e-05
-1.9390657300499984e-05
-7.735134052275441e-07
2.869942893849481e-07
8.124090875764334e-06
3.000769338663482e-05
6.121381457785054e-05
9.226422085702544e-05
0.00011468188025954858
0.00012388002644103205
0.00011958754242905838
0.00010482589732554444
8.42003073310032e-05
6.218606150318189e-05
4.205324092983925e-05
2.5755362402752227e-05
)
;

boundaryField
{
    "(inlet|outlet)"
    {
        type            zeroGradient;
    }
        "(front|back)"
        {
            type            empty;
        }
    "(top|hills)"
    {
     	type            zeroGradient;
    }
}

