/*--------------------------------*- C++ -*----------------------------------*\
| =========                 |                                                 |
| \\      /  F ield         | OpenFOAM: The Open Source CFD Toolbox           |
|  \\    /   O peration     | Version:  v1806                                 |
|   \\  /    A nd           | Web:      www.OpenFOAM.com                      |
|    \\/     M anipulation  |                                                 |
\*---------------------------------------------------------------------------*/
FoamFile
{
version     2.0;
format      ascii;
class       volScalarField;
location    "0";
object      nutCoeffs52;
}
// * * * * * * * * * * * * * * * * * * * * * * * * * * * * * * * * * * * * * //
dimensions      [0 0 0 0 0 0 0];

internalField   nonuniform List<scalar> 
1000
(
1.320718891357909e-08
-2.865233920510509e-08
-2.6526221413437323e-06
-1.057719407657757e-05
-5.961381386729257e-06
-6.38577365283795e-11
2.297698568994344e-05
0.00024752500962245617
0.0008608260206806793
0.0017070345117791007
0.002453596435178131
0.002937559529643641
0.0031858945715776315
0.003263005663693532
0.0031737727272650408
0.0029202164454937905
0.0025283502478757967
0.0020446384535485777
0.0015276519754073364
0.0010369454816929458
0.0006219894445049363
0.0003136891659049395
0.00012011888403343577
2.6802206527422434e-05
1.0288102856343363e-06
-9.293648515138579e-07
-2.4999850373716077e-05
-0.00011028576831200803
-0.00028129355385563665
-0.0005428394810747594
-0.0008787485748184531
-0.00125485684974532
-0.0016257457336410254
-0.0019438466704990835
-0.002168764225503336
-0.0022746521193200897
-0.0022541122639315766
-0.0021179687742238925
-0.0018691440534101236
-0.0014601426212956477
-0.0009109572594812149
-0.0003878347477515756
-8.27233807223132e-05
-3.2803856763150095e-06
2.8939449215211273e-07
4.574306162307464e-06
2.622405576622108e-06
4.1875170390173476e-09
-1.126147167265936e-06
-3.7773456098305696e-06
1.9818797116999277e-06
6.527539042902515e-07
-2.904388161468941e-08
-5.999278980854788e-06
-1.9158842362204534e-05
-1.2489789475029126e-05
-2.601025119819197e-07
9.781706213823401e-06
0.0001566539060319327
0.0005754098179774205
0.0011167976743276008
0.001475004272661695
0.001583833130806191
0.0015760211428311733
0.001489463703861349
0.001331633233262358
0.0011201205237864858
0.0008797195605887372
0.0006378422094359593
0.0004194782172828873
0.00024296230369265275
0.00011743663339915816
4.229507923196607e-05
8.34033280951047e-06
1.7079393684577377e-07
-7.517056829258167e-07
-1.2787082032344757e-05
-5.093744070792879e-05
-0.00012420312851280516
-0.00023390826197964694
-0.00037336843757194423
-0.0005290961263070825
-0.0006833295745462693
-0.0008174187908147971
-0.0009152868295578358
-0.0009662082740218392
-0.0009663605607770902
-0.0009189087518226583
-0.000806305514924063
-0.0005574855542537829
-0.0002430959063292922
-4.6646386438539595e-05
-6.672741045600848e-07
1.7871996239522745e-06
1.024351258509006e-05
6.7772525723241805e-06
2.1375158447730017e-07
-1.2648327587732835e-06
-1.1053117520531036e-05
-1.644448510289957e-05
1.0172425308274434e-05
8.759096434065342e-06
1.492875542859056e-06
-1.7766916268540014e-07
-1.170841990013197e-05
-3.468380445701024e-05
-3.0254991254499888e-05
-4.987155431244389e-06
2.8496935733341873e-07
3.413499797535872e-05
0.00014467107610711526
0.0002330629825247222
0.00024062667493339975
0.0002204877047560943
0.00019130527759878195
0.00015646660811094378
0.0001198940845192739
8.532407224218313e-05
5.566164979311432e-05
3.2587878567365125e-05
1.6495890782514226e-05
6.708247381716826e-06
1.8433207077921192e-06
1.8947033227135963e-07
-2.5147175201967096e-10
-3.163539336457529e-07
-2.077475508470902e-06
-6.25171559832781e-06
-1.3389334833635253e-05
-2.3567693684957017e-05
-3.636767715092896e-05
-5.090829583962512e-05
-6.595112058248216e-05
-8.00689174501784e-05
-9.185333432049519e-05
-0.00010012365317940358
-0.00010410027104614242
-0.00010351132461028064
-9.075544455422158e-05
-4.608810454071705e-05
-5.732453322046631e-06
4.5523125703211796e-08
9.448458067712059e-06
2.358116530119335e-05
1.4531851286867921e-05
1.1492498543960562e-06
-5.821892807024712e-07
-1.5460344004109176e-05
-3.4935441267285234e-05
-3.541887860231189e-05
1.92314317599088e-05
2.4914911496862545e-05
1.6405872357743747e-05
1.6251588837745756e-06
-4.661935404313979e-07
-1.8737530876416317e-05
-5.994354531943128e-05
-7.179715326251377e-05
-3.65089856630641e-05
-6.2951477640148274e-06
-1.409426460975011e-07
-1.0118053171549078e-11
-1.0762348621651176e-08
-1.7128863445937023e-07
-6.690355089855177e-07
-1.5687690266819685e-06
-2.75205824845507e-06
-3.932389493958522e-06
-4.752169336974826e-06
-4.929874133738442e-06
-4.390689824480451e-06
-3.310551371349258e-06
-2.0423818847534337e-06
-9.575779646592492e-07
-2.848265002811895e-07
-2.8325091741177254e-08
1.5612459585667293e-10
6.350937252119813e-08
3.631534883550648e-07
9.498710982161846e-07
1.7140464202337737e-06
2.4469155405000805e-06
2.9358380032218682e-06
3.0492915888475002e-06
2.778656201083801e-06
2.227033981861027e-06
1.5580931725883558e-06
9.321743744801621e-07
6.912711294342502e-07
2.411011541900567e-06
1.376249738126885e-05
3.963193389644846e-05
5.115411308400532e-05
2.6690181711307236e-05
2.7403449092971294e-06
-2.3602994172288145e-07
-1.567644214571038e-05
-4.892096047350498e-05
-5.6534064321386567e-05
-4.3487554142706635e-05
1.7012381797211643e-05
3.106028558327433e-05
4.097270468852511e-05
2.314311992310257e-05
2.2250845203154324e-06
-4.4927950728062124e-07
-2.344005807852617e-05
-9.066453649444109e-05
-0.00014916628779359888
-0.00015306928673903283
-0.0001347732743732521
-0.00014335656902458217
-0.00018491528639662138
-0.00023346697425230572
-0.00027473665309518864
-0.0003010831248574976
-0.0003064175402593154
-0.00028805116637517074
-0.00024791338461241814
-0.00019259592879335266
-0.00013197619707631418
-7.665606940188666e-05
-3.49565960779357e-05
-1.0477298406419029e-05
-1.1252550395747603e-06
2.441352485790328e-09
2.17428155026913e-06
1.3875787626646787e-05
4.003090054870322e-05
8.047901112834708e-05
0.00013011350750588864
0.00018052423204326643
0.00022250922467589979
0.0002486210757452694
0.0002549758074123908
0.0002418685517341463
0.00021318589544447477
0.0001749782182356226
0.00013915762546116877
0.00012562492082577144
0.00012389909930175764
9.637341543367979e-05
4.026293424874027e-05
3.825039014532327e-06
-2.1830788874113119e-07
-1.7093588588819082e-05
-5.856521966746847e-05
-7.351133254135392e-05
-4.991674955578185e-05
-2.864443547882334e-05
5.316884680600647e-06
1.6650802697808363e-05
4.350098863686748e-05
5.924816020523966e-05
3.489604836551124e-05
5.179074962039536e-06
-6.36316552470594e-08
-1.9742921867592207e-05
-0.0001042781636833528
-0.00022917232085795127
-0.00034685237843183045
-0.00046271167986850707
-0.0005905099959791529
-0.0007100738558290096
-0.0007992573813305366
-0.000840512424128864
-0.0008227114609030598
-0.000744867045377073
-0.0006176306601654811
-0.0004617210268567724
-0.0003032934703005312
-0.00016731378740649264
-7.085973449205567e-05
-1.8481367020205627e-05
-1.2432231053242225e-06
1.381014468814276e-07
9.009259340686467e-06
4.5347880939432185e-05
0.00011952664406814236
0.00022916514439200378
0.0003599088648189897
0.0004897286577993693
0.0005952206915263976
0.0006579090694550982
0.0006686576821758756
0.0006290810447541956
0.0005499216965681787
0.0004473068344479271
0.00033911234029015795
0.00023680477221580564
0.00013396184407842807
4.365018710212451e-05
2.7639437536463993e-06
-7.007659441113412e-07
-2.378153195934536e-05
-7.226959595740849e-05
-9.031798781968615e-05
-5.555708689625014e-05
-1.9454120264974873e-05
-6.501302913281868e-06
1.63273771297991e-08
1.524126258050485e-06
1.7374492190870292e-05
5.921003033176121e-05
8.547058169240385e-05
6.0553344212976306e-05
1.6345126735588072e-05
1.028574593478736e-07
-6.511260618096717e-06
-6.380144818646753e-05
-0.0001782990085230495
-0.0003022421843541494
-0.00040881690626259253
-0.0005026869475616423
-0.0005748670050156123
-0.000610847456711213
-0.000601201728838199
-0.0005447609803306712
-0.0004498713327427441
-0.0003330171301047424
-0.000214904480005086
-0.00011497599493396212
-4.600669268276898e-05
-1.0535549240054404e-05
-3.976986044701487e-07
4.0254293015178014e-07
1.034965660740807e-05
4.4315019720023315e-05
0.00010865250355597201
0.00019904013761542304
0.00030169774068521414
0.0003975213931501682
0.00046770435548840417
0.0004990215006247919
0.0004871230735391555
0.00043696390852723723
0.0003605500572982024
0.00027304164497824173
0.00018384817554642914
9.23669443702069e-05
2.2414878697443054e-05
3.1289056615940173e-07
-3.890419525654918e-06
-4.137741603130217e-05
-9.695671604364716e-05
-0.00010939978110171432
-6.360809963980362e-05
-1.4969181205655687e-05
-8.001711762308216e-07
-1.0896259921344835e-10
-4.862138657588198e-06
-6.715252224150198e-07
4.150947003786566e-07
1.937349412398947e-05
7.514356495001476e-05
0.00012302789997068183
0.00011138380537093792
5.2628949657309765e-05
8.128769908835416e-06
1.5857423417765126e-10
-4.362804872309911e-06
-2.00374664068821e-05
-3.6497907367062616e-05
-5.313920227488153e-05
-6.899769043605905e-05
-8.068082215106055e-05
-8.525552508651459e-05
-8.12389082310871e-05
-6.922341992751402e-05
-5.1850286615640035e-05
-3.306754931733374e-05
-1.687863513966263e-05
-6.010198457766014e-06
-9.903580970248039e-07
-2.346419610890059e-09
4.0413323215033684e-07
3.981540855712451e-06
1.330938632345656e-05
2.871586918726819e-05
4.8001921356633894e-05
6.708699202529285e-05
8.135858941052403e-05
8.723260810101324e-05
8.33494338565432e-05
7.096364921434829e-05
5.3407502975427975e-05
3.488032665317457e-05
1.9066252514820848e-05
7.2230890041491615e-06
4.5187317325444087e-07
-7.71791754755658e-07
-2.1323380701715072e-05
-8.065091751186769e-05
-0.00013605255384618626
-0.00012912345569379764
-6.738410956976441e-05
-1.29543639514243e-05
-2.5544164723694438e-08
2.4798436810358895e-06
9.743026993576277e-06
-5.336428597288079e-05
-3.198533024511516e-05
-4.901235624382951e-06
7.776629132617886e-08
1.7356616391510994e-05
8.270990701693797e-05
0.0001639149979759161
0.0001932098242361401
0.00014796793195272632
7.785540289193933e-05
3.2397742579446354e-05
1.5338402072423198e-05
9.837252020193096e-06
6.531371559294596e-06
4.087456994898918e-06
2.4239735343301628e-06
1.3768665113180868e-06
7.639030145997942e-07
4.2746024481678067e-07
2.5256903961191026e-07
1.6617294772492244e-07
1.269918874223824e-07
1.137257683230986e-07
1.1548771375330273e-07
1.2511024717742347e-07
1.3499019320221319e-07
1.3580922289886422e-07
1.1903724180733378e-07
8.293944191758111e-08
3.839270469518756e-08
6.697684935766938e-09
-3.3253284527259255e-12
-2.0590575867712644e-08
-2.0166136631685282e-07
-8.450627888292108e-07
-2.410826555137226e-06
-5.445014304334222e-06
-1.0428116011486195e-05
-1.8987693661039896e-05
-4.0926747897594164e-05
-9.080317216558439e-05
-0.00015615325754065644
-0.00018441389339835662
-0.00014007930078113433
-6.0152265458970346e-05
-8.440266112382525e-06
6.726792893593155e-09
1.2536032149765038e-05
5.350764805654112e-05
8.046470607539698e-05
-0.0001717847322653069
-0.0001483671749598389
-7.663968279336226e-05
-1.400866234297446e-05
-5.330807952092018e-09
9.150560069298658e-06
6.948344094363478e-05
0.0001802585584068722
0.00027928770850491915
0.00031490022121205525
0.0003028895623823838
0.00029132789542521707
0.00029223726823515727
0.00028692957509268024
0.0002701180612453505
0.00024314692235050543
0.00020839655186750332
0.00016902072776905783
0.00012855887467245098
9.04765793762266e-05
5.7695794228380765e-05
3.2194440723374764e-05
1.474078747900068e-05
4.815274039904636e-06
7.404964638127334e-07
1.474509352836209e-09
-3.012165590161563e-07
-2.952834174049936e-06
-1.0176776395501025e-05
-2.3317492739348246e-05
-4.269506753625765e-05
-6.763084844135449e-05
-9.660391586513465e-05
-0.00012749023274527722
-0.0001578373966152487
-0.00018514107362058917
-0.0002071129372134387
-0.000221921210613135
-0.00023215922823502917
-0.00024846837109016875
-0.0002559147973758342
-0.00021580646705230053
-0.00012581137345465948
-3.9204657889455966e-05
-2.426536712282836e-06
7.643077032185403e-07
2.9962616736948792e-05
0.0001158872450863143
0.00020117831270039985
0.0002258356373436167
-0.0002987483811704312
-0.00031052043943047096
-0.0002534269220888359
-0.0001370639880157106
-3.8854055624479155e-05
-1.9659198932744414e-06
1.0931786284479141e-06
3.393192186373735e-05
0.00013414713202834986
0.0002746148875392686
0.0004031610054874269
0.0004992109546813776
0.0005704997284145469
0.0006173782032327007
0.0006330102859476503
0.0006132173416040608
0.00055871304853639
0.0004754895081055989
0.0003740914517819377
0.0002677984658446464
0.00017004159187403056
9.162048037316119e-05
3.8410332996844956e-05
1.0162085461700478e-05
7.667142181263895e-07
-4.117431891976957e-08
-3.962987857857441e-06
-2.1120143327389607e-05
-5.754918113945979e-05
-0.00011384741259146042
-0.00018525177162074036
-0.0002630107671253912
-0.0003365669717835281
-0.0003959190429597872
-0.00043358600359592674
-0.0004457813301763917
-0.00043268701479314865
-0.0003979170746040688
-0.00034623486406993816
-0.00027453302732313316
-0.0001767823662609079
-7.533975327145809e-05
-1.2966884409082576e-05
-5.859009251371351e-09
8.412901079443466e-06
6.77593012052327e-05
0.0001893211127932599
0.0003164962555099497
0.00037207304080592385
0.0003557393552338135
-0.0003196682038290619
-0.00037754563894138853
-0.0004078605352544202
-0.0003573296925883916
-0.0002345828919116163
-0.00010407899707046583
-2.251857750899504e-05
-3.1671983205991717e-07
3.29452395653058e-06
3.971191399908937e-05
0.00011725637104133454
0.00020279146621279758
0.00027575015120334277
0.00033848771705576606
0.00038448756787175134
0.0004045437153124134
0.0003934665830057843
0.0003518449032053143
0.0002864067441007155
0.00020868851148459126
0.00013224938372851636
6.915222824357818e-05
2.6738648589701095e-05
5.707148491967766e-06
1.5233867494427538e-07
-3.843650702007375e-07
-7.464564695178639e-06
-2.9997144571654704e-05
-7.138535970236628e-05
-0.0001284718943112097
-0.0001925445427435148
-0.0002519784993114074
-0.00029557350975386914
-0.0003155210987068574
-0.0003091652815549264
-0.00027919690037818895
-0.00023244290003109367
-0.00017779181926773165
-0.00012112779993494232
-6.193171580753166e-05
-1.5514204262545376e-05
-2.398471445484376e-07
3.1607034646532923e-06
4.313351310305081e-05
0.00014668162306378092
0.00029048763463773605
0.00041243993637993763
0.00045218964729374603
0.0004119531413190933
0.0003501377424171652
-0.00020150649333054658
-0.0002679017028841562
-0.00036622338869714386
-0.00044827463037304247
-0.00045292259019175666
-0.0003695365168757223
-0.0002343386586801852
-0.0001047240363013873
-2.6346434825444793e-05
-1.7502177511525918e-06
3.4388509260012675e-08
2.8769263790528803e-06
1.0366559567205208e-05
2.187778169603554e-05
3.5741000912045994e-05
4.8551085770542114e-05
5.668261623984323e-05
5.764557023454434e-05
5.106410222775372e-05
3.8867938715475325e-05
2.4593458184317235e-05
1.2047126088139995e-05
3.850172193427027e-06
4.4797588185521476e-07
-4.702678889873517e-10
-7.860107131114422e-07
-5.189475035148896e-06
-1.4994030967148516e-05
-2.95916756890457e-05
-4.6063438912991126e-05
-6.020518299249706e-05
-6.807732399709384e-05
-6.745125635875275e-05
-5.859234266266959e-05
-4.410540342289193e-05
-2.7946732830010504e-05
-1.4008165063839608e-05
-4.804636155305867e-06
-6.103984381501278e-07
2.2778685083364636e-08
5.750668217083746e-06
4.267124100347436e-05
0.00013555078186890405
0.0002727159734880634
0.0004049454533300565
0.00047761327977918246
0.00046024217631448084
0.0003693568311098034
0.0002687021814850692
0.00020360814545541397
-5.472428251968532e-05
-8.693076395365673e-05
-0.00016108073363387
-0.00027878295650025377
-0.0003996667875743322
-0.0004749829460011753
-0.00047417314420523075
-0.00039649867369532046
-0.0002748814610705556
-0.0001590830682631281
-8.077007288388538e-05
-4.027074645435273e-05
-2.0267125205859675e-05
-9.155204259761213e-06
-3.4548547838022826e-06
-1.0225358264016276e-06
-2.116219718731467e-07
-2.391477255667678e-08
-6.977979125062415e-10
6.657806613602924e-14
-7.46885101525155e-15
-8.087713777411045e-10
-1.584509653103585e-08
-9.335444296714443e-08
-3.0838095337740535e-07
-7.069001690765043e-07
-1.236172567848893e-06
-1.7220807327877787e-06
-1.934547067776127e-06
-1.7233264324261313e-06
-1.1451402997700665e-06
-4.795035170248477e-07
-6.851799888362646e-08
3.1137689819086983e-10
2.579503751933394e-07
2.102779774108661e-06
7.786332008753036e-06
2.006272914389155e-05
4.275672944163198e-05
8.694268050281817e-05
0.00016760999795355282
0.0002807824956615448
0.0003935211521584405
0.00045988200149748096
0.00045252367970840824
0.00037512274993502004
0.0002579022860799026
0.00014687189247583263
7.860952490839974e-05
4.969896319808423e-05
-6.494978271645325e-07
-2.752853296338852e-06
-1.4808586781980843e-05
-5.496715806440153e-05
-0.00013313335545815305
-0.00023860874600627945
-0.00034558691823348544
-0.00042245952480823737
-0.0004444393383323261
-0.00041089233723602263
-0.0003466367552184899
-0.00028109105202656364
-0.00022474354281078134
-0.00017508696830411736
-0.00013246638801648301
-9.758407614400358e-05
-7.015852261893827e-05
-4.930151777067115e-05
-3.385995869422311e-05
-2.2665755099547838e-05
-1.4684426002011084e-05
-9.079761621572181e-06
-5.222315791855384e-06
-2.6640944247955983e-06
-1.0951709087617167e-06
-2.863770773476121e-07
-1.8205295169131593e-08
4.41226415996843e-09
2.455934059522879e-07
1.4231719215526603e-06
4.5573771354752985e-06
1.0953760203048933e-05
2.2099586654644666e-05
3.9475084982715056e-05
6.43040557068413e-05
9.72879429758235e-05
0.00013836939372967932
0.00018656588374435802
0.000241151075506776
0.00030298665601264117
0.000360813594618891
0.0003881530458807143
0.00036479499214900726
0.0002941181080241544
0.0001995353863628711
0.00010861425711888779
4.296164154357174e-05
1.0607302001786543e-05
1.6619635512447357e-06
3.163458952048923e-07
1.6623025984312202e-05
1.1149916928515557e-05
2.5972712485117506e-06
1.7525218796467219e-09
-1.9671078958621865e-06
-1.7533427988341575e-05
-5.668951838561727e-05
-0.00011939248001391514
-0.00019231188369677135
-0.0002533694703378033
-0.00028610105230160074
-0.00028903683665490237
-0.0002742416976534057
-0.00025156489390098456
-0.00022388342336972296
-0.00019291101248064888
-0.00016035469425404214
-0.0001278574752716388
-9.696087081785429e-05
-6.905790306165487e-05
-4.531473098468666e-05
-2.6561342113815e-05
-1.3168998037046182e-05
-4.94016394314704e-06
-1.0442053582169318e-06
-2.7843306748514864e-08
7.525153574906075e-08
1.5239333390446611e-06
6.547127609257969e-06
1.6959104657357008e-05
3.3787135011627875e-05
5.700786984905159e-05
8.548047211648449e-05
0.00011711813740134422
0.00014926933252107808
0.00017920117706118183
0.00020455857279745492
0.00022367503844645788
0.00023461229017014319
0.00022976358177326242
0.00019969816780392573
0.0001471318347671061
8.724248883759002e-05
3.84221815972714e-05
1.0216671492217277e-05
6.748051234573643e-07
-8.378705725765685e-08
-4.360226556487995e-06
-1.461273065308304e-05
-2.037538829529158e-05
0.00021649835630593877
0.0002132062795799069
0.00016374631506025096
9.561034636997033e-05
4.1702257084759285e-05
1.1585503849545409e-05
1.036853591845865e-06
-1.2662941208073387e-08
-2.702550930409561e-06
-1.335792972156106e-05
-2.9904934725970105e-05
-4.5465624409504766e-05
-5.742702418679885e-05
-6.719570247593186e-05
-7.414286078479362e-05
-7.703906402642872e-05
-7.511243963264924e-05
-6.829546591157636e-05
-5.7355124341044496e-05
-4.383439810984537e-05
-2.9775347173597337e-05
-1.7264408659362974e-05
-7.908698331556265e-06
-2.3929959490600985e-06
-2.594514369222679e-07
6.538287886413435e-10
5.398958036753357e-07
3.5227212935912877e-06
1.0437261042206167e-05
2.1559407134622756e-05
3.575641587807504e-05
5.0729534322020706e-05
6.364724428803287e-05
7.19718598649097e-05
7.419354149801009e-05
7.021041710662367e-05
6.123857833048654e-05
4.932613711850883e-05
3.607547746159587e-05
2.13295725826643e-05
7.944107259210362e-06
9.736149895184356e-07
-4.94209281514626e-09
-2.7219967243520035e-06
-1.778738047929541e-05
-5.345620458666486e-05
-0.00011187954322156809
-0.00018194519124156507
-0.00023039716652859804
-0.00023117175623455416
0.0007414688623683435
0.0008094973247373974
0.000786486240401244
0.0006839417910691074
0.0005435971465890817
0.00039571226456188975
0.0002600834363171786
0.00015056499307418718
7.479483144644117e-05
3.118515368244823e-05
1.0683210948405102e-05
2.9044027196315345e-06
4.6237325741054156e-07
5.4492797370355415e-09
-4.690507141240362e-08
-5.429937015190325e-07
-1.6098039906271363e-06
-2.837901001070083e-06
-3.6458200667493324e-06
-3.6495315836524384e-06
-2.870555507745531e-06
-1.7009840111534906e-06
-6.643893736882685e-07
-1.0926033658645364e-07
-4.03873690703133e-11
8.043911895020643e-08
7.077052554209714e-07
2.273081442383003e-06
4.692704637014957e-06
7.333666674182274e-06
9.235177366755423e-06
9.557821653396233e-06
8.052180264498688e-06
5.279363753107575e-06
2.3961505867528134e-06
5.28988350956508e-07
5.317249096711764e-09
-1.5455188696185613e-07
-2.2451779004276784e-06
-1.0551810082063478e-05
-3.3503607956846034e-05
-8.223677377489952e-05
-0.0001654084597535028
-0.000282905742941492
-0.0004248420709394213
-0.0005757010141608394
-0.0007153479268776669
-0.0008145607797972684
-0.0008333888400005775
-0.0007617210128594373
0.0014604464158144178
0.00167333297452133
0.00179521096030886
0.001809708980559976
0.0017292531530197826
0.0015702596441342343
0.0013525453754782298
0.0011018240730603821
0.0008485069494255625
0.0006200988790390591
0.0004332326722888692
0.0002918031665537536
0.0001876675333221267
0.0001127100293170159
6.254345457486462e-05
3.1863550857991135e-05
1.4831751437286207e-05
6.309060867680646e-06
2.4855918638009037e-06
9.467378841253872e-07
3.8429173383296955e-07
1.952917868445527e-07
1.4497087761700809e-07
1.5847663814626814e-07
2.1846865375980942e-07
3.151420435547407e-07
4.155552814332229e-07
4.561380781464669e-07
3.77673430186843e-07
1.9508895808995444e-07
3.2833350065021054e-08
-3.652130964690343e-10
-2.1895759660735048e-07
-2.0611850513020434e-06
-8.885292743269886e-06
-2.644532380152817e-05
-6.25486897038951e-05
-0.00012557995580439858
-0.00022297842754455277
-0.00036385764764183354
-0.000556108868642616
-0.0007952886486121473
-0.0010629844012546121
-0.0013291250333898553
-0.0015606964436295871
-0.0017303357626746018
-0.0018181176061830876
-0.0018087448313979582
-0.0016908670043103292
-0.0014807980076287728
0.002044171313356897
0.002404004596583865
0.0027043573858314676
0.0029123643405873797
0.003007026381082633
0.0029778755214421694
0.0028274149451198143
0.0025723449919936112
0.0022418269091773165
0.0018720200478189895
0.0014988282452394052
0.0011516881619585452
0.0008483811943307555
0.000597804061050849
0.00040287626983685944
0.00025997600718799237
0.00016099933118414044
9.603871795378485e-05
5.5479485433555185e-05
3.125374758767834e-05
1.730133042161577e-05
9.4681348323533e-06
5.119991365096128e-06
2.694621965959029e-06
1.3198392825289124e-06
5.403522826061386e-07
1.3898443682346803e-07
5.951301902265099e-09
-1.0710601028174936e-08
-3.558273126831021e-07
-2.20002691064669e-06
-8.093563059783072e-06
-2.277129175436229e-05
-5.3867071316016485e-05
-0.00011211740197720454
-0.0002105563474355083
-0.0003623499520732101
-0.0005773425345469865
-0.0008584358151985234
-0.0012000473267022491
-0.0015849847907906168
-0.001982147019662698
-0.0023517150883372163
-0.0026523789430113916
-0.002849725483515637
-0.002922753269797595
-0.0028662535076164845
-0.002689461416595903
-0.0024129292089945516
-0.0020693162823290498
)
;

boundaryField
{
    "(inlet|outlet)"
    {
        type            zeroGradient;
    }
        "(front|back)"
        {
            type            empty;
        }
    "(top|hills)"
    {
     	type            zeroGradient;
    }
}

