/*--------------------------------*- C++ -*----------------------------------*\
| =========                 |                                                 |
| \\      /  F ield         | OpenFOAM: The Open Source CFD Toolbox           |
|  \\    /   O peration     | Version:  v1806                                 |
|   \\  /    A nd           | Web:      www.OpenFOAM.com                      |
|    \\/     M anipulation  |                                                 |
\*---------------------------------------------------------------------------*/
FoamFile
{
version     2.0;
format      ascii;
class       volScalarField;
location    "0";
object      nutCoeffs16;
}
// * * * * * * * * * * * * * * * * * * * * * * * * * * * * * * * * * * * * * //
dimensions      [0 0 0 0 0 0 0];

internalField   nonuniform List<scalar> 
1000
(
0.03854151136933923
0.05518499485508231
0.08787889985832802
0.12281169273449208
0.14426106726141272
0.14781016968630142
0.13536556873829403
0.11141037964441626
0.08208660932391916
0.05358940935333173
0.029537191966611604
0.010227582615724803
-0.006969010918542045
-0.023695178280977235
-0.039387707829833626
-0.053096057357116457
-0.06394071366346606
-0.07118304762481012
-0.07428783282372219
-0.07297275000939386
-0.06723998165975181
-0.057386814471478725
-0.04399416647985009
-0.027892555097406506
-0.010108321541316119
0.008205273269665586
0.025850011666928303
0.04166560461494051
0.0546133640141337
0.06384961539420551
0.06878391102600448
0.06911849855240176
0.06486372976062696
0.056330532952141424
0.044098852808224905
0.02896705337819874
0.011885567625028544
-0.0061180915597084775
-0.02433955675077148
-0.04405724909649673
-0.06756898101507221
-0.09452844384449405
-0.12158242511153544
-0.14316006948521018
-0.15380601007294695
-0.14949547970636923
-0.1284769939961546
-0.09490752283573309
-0.06367195051447076
-0.04760832836035242
0.0004013544554254587
0.015681554065121447
0.04968030151672919
0.09131417724302633
0.12439314117079511
0.14173941213631633
0.1424199453096642
0.12854455115488392
0.10459205247607327
0.07666579519082575
0.0498909655165682
0.026475536896777105
0.004899663559461255
-0.016229737634019258
-0.036161543571897374
-0.053716765647934775
-0.0678093699379673
-0.07753163628682909
-0.0822294011228645
-0.08156050913738987
-0.07553103129522795
-0.06450567481083883
-0.04919175197786246
-0.03059595600525756
-0.009958735189578035
0.011329614474966793
0.03182657942175418
0.0501363681756689
0.06500950961191698
0.07542928305646676
0.08068120244350842
0.08040019400182785
0.0745899995215044
0.06361529889413378
0.04816609021147817
0.029198629336269353
0.00785786636477162
-0.014611691522849572
-0.03729054574446141
-0.06105046416042184
-0.08704610250980357
-0.11326825233421357
-0.13514411334232707
-0.14732024793742574
-0.14588326486607614
-0.128913459548903
-0.09721638022187938
-0.05753635331464105
-0.025249821146178984
-0.010631259043576032
-0.03794184175400559
-0.024999497572169734
0.007152200983612308
0.05088869396247476
0.09152094555654117
0.12047271259930531
0.1345013975069073
0.1332302619347982
0.11865246133686953
0.09540429799325986
0.06898957856189465
0.043209871085546456
0.018262625370197953
-0.006410593053646448
-0.029811980308345542
-0.05058541856784441
-0.06748389324907558
-0.07946625917282733
-0.08578206993236688
-0.08603655505971887
-0.0802305462156673
-0.06877095745580951
-0.05245153544481473
-0.032403383695012854
-0.010020439540455596
0.013134819738873824
0.03544103130919146
0.05532899378031019
0.07139203846531832
0.0824835883378959
0.0877942346287565
0.08690494132553266
0.07980941626188362
0.06690636995363757
0.0489606950685718
0.027039301455771905
0.002425614557551313
-0.02347918061998653
-0.04951084707589355
-0.07564906872944456
-0.10135580502770959
-0.12321726445695473
-0.13643098243431187
-0.13706346485659968
-0.12346759257392456
-0.095956494334398
-0.05746368639596509
-0.016084131531900612
0.014212527862859705
0.026449215030869614
-0.07271156303430332
-0.06272995175520159
-0.03515741185034371
0.006002368686585521
0.04906954993572806
0.08548347733090188
0.11058819803140636
0.12196229384046144
0.11896194988840234
0.10380300097242266
0.08108924167676308
0.05541836176442487
0.028962910613792293
0.0024813924991111116
-0.02276540930668671
-0.04533607303339449
-0.06390407557057262
-0.07735951397029357
-0.08489817808727368
-0.08608973297419792
-0.08091955529172358
-0.06979968933748006
-0.05354880398959551
-0.033340417801118565
-0.010625414755971762
0.01296675542983876
0.03574243308975185
0.05605927282398375
0.07244262041693796
0.08368628770980793
0.08893409155182946
0.08773531608356921
0.08006881288652355
0.06633569934877558
0.047320096855229365
0.02412344190396402
-0.001923046156442651
-0.029359713355464
-0.05678398308641103
-0.08289471080667062
-0.10524963024087415
-0.11972526157379995
-0.12240699819037922
-0.11160905741974926
-0.08807925493293263
-0.05398814676432507
-0.013602619474450926
0.024968981681391035
0.050639974117408205
0.05988992508893303
-0.1003576242622641
-0.09354256198484573
-0.07247782301174366
-0.03787992821064484
0.0024450234830803276
0.041127418979283854
0.07308295343459899
0.09462385486265361
0.10294097569872539
0.09757354092145991
0.08126768811207305
0.058455875824862
0.033056938833055015
0.00727360670538158
-0.017439039365842384
-0.03967678198420809
-0.058141783729705326
-0.07174182934123238
-0.07967691014425514
-0.08150626987194336
-0.0771898301744346
-0.06710020180838716
-0.05200455600014546
-0.033016112953546825
-0.0115200916928226
0.010920770247588142
0.032676160355104594
0.05216033031115046
0.06794395232011367
0.07885249603950574
0.08404533734734007
0.08307015224784607
0.07588666041289972
0.06286074452536125
0.044727422754765093
0.02252926385045744
-0.0024673283101908127
-0.028867252318519113
-0.055107239194120736
-0.07853439472157012
-0.09505185811009878
-0.10068610593199741
-0.09323840398927916
-0.07345926145304171
-0.04404689560499842
-0.008331799951856353
0.028996818561488877
0.06095521157725279
0.08017471060015392
0.08623945460862815
-0.11802607854179141
-0.11417577904024206
-0.10051735842857513
-0.07516125797601625
-0.04185695917275966
-0.006029425784001166
0.027645182164892833
0.05506770040563203
0.07213821733732068
0.07617049774608557
0.0677171492924214
0.05026248925331287
0.028786098286017855
0.006589912698842111
-0.014838857792122864
-0.03426487570953807
-0.05053575087055226
-0.06267013492812663
-0.06993554869107861
-0.07190944009853636
-0.06851795091654644
-0.0600493040935841
-0.04714033818093451
-0.03073634484531155
-0.012027816250265808
0.007631207002876498
0.026819469565438805
0.04414672325161991
0.0583532762401759
0.06839705162215831
0.07352433055082282
0.07331853859439294
0.06772216047701371
0.057032337867457504
0.04186939265559937
0.023123418856312573
0.0018823364020856572
-0.02065046773561939
-0.042915583887490255
-0.061285150203594575
-0.07068506957056903
-0.06798226680073036
-0.05294242507494759
-0.028288859972951025
0.002143938441905552
0.034645879492124707
0.06489735123065767
0.08776911500311226
0.09975258122003208
0.10283664497563988
-0.12395652518647463
-0.12254066108729149
-0.11612226616300164
-0.10105322506304017
-0.07743423475461067
-0.04847057991691826
-0.017885987545028785
0.010521743278066823
0.03234514944316555
0.04361508863067263
0.043014465484749215
0.03268932162508933
0.01772069863605027
0.0017730411628900618
-0.013854706774727735
-0.02821083675342978
-0.04038934587865398
-0.04960053024311486
-0.05523461147628507
-0.05691281658635546
-0.054521750777566255
-0.0482277933550583
-0.038470678105038576
-0.025935603375303058
-0.011506527335158643
0.003795859923197298
0.018888330590030162
0.03270235464007619
0.044262197357028514
0.05275427764984586
0.05758365859149432
0.058413053000062
0.05518062127948561
0.048096898725019085
0.0376205516702652
0.02441685387319661
0.009302241199678568
-0.006819460134361489
-0.022615263961769955
-0.034241232671330585
-0.03657646371007694
-0.027638211097790716
-0.008795990775053301
0.016158376616633975
0.04316192914013601
0.06877978351829467
0.08957832613191245
0.102532543334001
0.10755080435605609
0.10818402322531838
-0.11773858164968352
-0.11802870141822806
-0.11777498834411607
-0.11241264581956524
-0.09921172725674428
-0.07930546045490011
-0.055247061430588586
-0.030085633013234074
-0.007713413182986878
0.007704920602470996
0.013760342405429178
0.011293411378151602
0.004524487695478976
-0.003403568812708214
-0.011593089385219423
-0.01944806095365008
-0.02637170343763422
-0.0318157255867219
-0.035326772202097276
-0.03658537631805153
-0.0354345453467869
-0.03189537413556552
-0.026168467562082007
-0.018620377385380013
-0.009756593095480874
-0.00018295498812759546
0.009442144758624564
0.0184587747650855
0.02625769390567064
0.032327096613513545
0.03629058167245894
0.03793322075726254
0.03721292587010565
0.03425739095843437
0.029347202513357967
0.022887381222096936
0.015370489519285341
0.007335281708665952
-0.0003269837903211991
-0.004443768922423421
-0.0007724492897670352
0.011591853875449384
0.030432969800534657
0.05190564430918298
0.07246844246592754
0.08936805873809814
0.10025408261614671
0.10403825098040044
0.1032261574279991
0.10213135790735846
-0.10037681107240701
-0.10159988081075275
-0.10583324984535956
-0.10830065929984602
-0.10445234308398409
-0.09378859463296406
-0.07774483266167374
-0.05845533672189832
-0.03879984692370473
-0.02224829826689194
-0.01141525050468559
-0.006444175290090034
-0.004673404142400776
-0.004202171092075853
-0.0046672115673019815
-0.00584128479343567
-0.0074472454119333354
-0.009185853606231417
-0.010764571219673336
-0.011924470719479847
-0.012463013487484074
-0.012250645935096964
-0.011239953733071432
-0.009466279813016162
-0.007040143560620611
-0.00413201146731082
-0.0009509991516538806
0.00227964027770861
0.0053479884941504624
0.008076550054796143
0.010340422105502211
0.012078455605363036
0.01329650709158686
0.014062777845759452
0.014496260441860661
0.01475030791409698
0.014993384981319023
0.01538964857150345
0.01625954788512871
0.019414279795552384
0.027552429361481695
0.0407991344199576
0.056906030537958265
0.07277674737742151
0.08582682312430785
0.09412456362115895
0.09634033199291982
0.09288830676411614
0.08791006642340635
0.08584860823508896
-0.07414345868633067
-0.07562731537925649
-0.08245395484108993
-0.0901360832686436
-0.09330295468884266
-0.09039215138176411
-0.08194187779073145
-0.0692233683673004
-0.05396658841963109
-0.03847144736293762
-0.024890465495623484
-0.01395305358998334
-0.004816084007143108
0.0028760148399841895
0.00895000119167128
0.01331299103623805
0.015965347247265785
0.01699138875359707
0.016545795321582905
0.014837103739526568
0.012110068690924564
0.00862827998202854
0.004658745420636565
0.00045936810261409857
-0.0037295259364273697
-0.007689640928138526
-0.011225737902331638
-0.014163914077049256
-0.01634921163964332
-0.017643645198691327
-0.017926216619310188
-0.017095837283684395
-0.015076954841834474
-0.011827409973374517
-0.007347021041256506
-0.0016852467469291644
0.005053791640908854
0.01271004109256135
0.02104292650429722
0.030262334445720077
0.04128295136217329
0.05376632778451237
0.06599220102457291
0.07599764868446683
0.08224872234062164
0.08357915136322952
0.0794726658158471
0.07131502084044063
0.06397648133018183
0.061606933928590596
-0.04223973580980049
-0.0435211959825654
-0.05120961420082484
-0.0613967185531558
-0.06872663102725726
-0.07113174883159587
-0.06853155644324121
-0.061506861652007035
-0.05078805450286275
-0.037484787754351316
-0.02301677596860557
-0.008397891981641563
0.0056045042780791185
0.018006456099927425
0.028235228502795064
0.03597711099856588
0.041040202035601686
0.043358345317916686
0.042988406752263855
0.04010183220146292
0.034971098864509276
0.027952564352787278
0.0194674212013065
0.009981690686342946
-1.2800054639044024e-05
-0.010016033314169481
-0.019536149914252413
-0.028103537710729154
-0.03528495131760476
-0.04069699668671498
-0.04401993638818951
-0.04501194855643048
-0.04352224756120129
-0.039502877565688224
-0.033016533575263254
-0.024239262383847
-0.013456527527662363
-0.0010517579925594764
0.012326579330884045
0.02556588651704279
0.03800718200833258
0.04903437696830259
0.05760837698583539
0.06284795836964431
0.06410786404484647
0.06083784558861736
0.053094166994667714
0.042739832437259
0.03463970955383908
0.032418535980959916
-0.008323888436935977
-0.009200628364011212
-0.016470792971283052
-0.026926648620696405
-0.03582141547586568
-0.04103072929053
-0.042110000305949
-0.039151709961586484
-0.032192120537314226
-0.021466783080108184
-0.007768120458908023
0.007750985761967599
0.023276289840144623
0.03709114380543618
0.048459053334760804
0.05697449822939233
0.062360152561638314
0.06447745820257156
0.06333006711066679
0.059060504450577984
0.05194025029186235
0.04235469958725899
0.030784141980293816
0.017782056479898736
0.003952412232185797
-0.010073165704352164
-0.023658593591882427
-0.03618482132607191
-0.0470724354232414
-0.0558034540465264
-0.061942557312869156
-0.06515819951285709
-0.06524056546734712
-0.062116239084161556
-0.055856761417895306
-0.046679641363483786
-0.034940483368586996
-0.0211161864855459
-0.00601442695591947
0.008584996071043583
0.020994375657928457
0.03035723612480204
0.036123131097689526
0.03815060747631837
0.03640464941000244
0.03079170613799125
0.021730914573590183
0.011174246585715093
0.0034647790106286064
0.0016045668605385805
0.02400891459146205
0.023489620861433812
0.01732041727645598
0.0079957531802498
-0.0006869727285163987
-0.006847979295064965
-0.009871600857224723
-0.009537266920702878
-0.005510374856723952
0.0024049915986908824
0.013738805058883521
0.02724528450222064
0.040777113334670254
0.05263673461765846
0.06218350775281441
0.06905230386875429
0.07298755271576263
0.07385369145594711
0.07164002774882644
0.06645995945806732
0.05854476380978015
0.048232665495764986
0.03595422474906744
0.02221468709636997
0.007574756374679224
-0.007369648877666085
-0.02200886666989946
-0.03574058522060948
-0.04799248589457205
-0.05824465676070843
-0.06605221887115627
-0.07106728042007278
-0.0730581761422862
-0.07192487803138153
-0.06770828022593837
-0.06059173898468218
-0.050893890034775215
-0.03905222893479085
-0.025772609825998164
-0.012752147989742273
-0.00202848025231977
0.005296600320828269
0.008837875613065082
0.008781989442471893
0.005430148454573636
-0.000990939977209925
-0.009862220478880862
-0.019410504855480144
-0.026122096101620966
-0.027637701900918615
0.051705240881690304
0.05131202032499563
0.0463423747523247
0.03861988066324148
0.030874580096929942
0.02458161598358648
0.020396140041926494
0.01871962554740392
0.020010882076183692
0.024533006696688286
0.0318632661075892
0.04072393272097931
0.04927738094953433
0.05645026492671202
0.0618994164724948
0.0654090976707684
0.06683199500902996
0.06609419649304739
0.06319773501105017
0.058220322666479835
0.05131285432410012
0.0426944353202655
0.03264553900049283
0.02149938118093558
0.00963168766457069
-0.002550310516927107
-0.014621153874746677
-0.026150692094269835
-0.03671998411367882
-0.045937922855672976
-0.053458963699983
-0.059000807747465425
-0.062360754920093645
-0.06342910274455357
-0.0621982593084113
-0.05876575788284159
-0.053330470345679816
-0.046181827133920904
-0.037731060995643974
-0.02903629510879452
-0.021874508503962484
-0.01750679733155952
-0.016375236917203412
-0.01826659879212302
-0.02274690880094335
-0.02938551405310098
-0.037491579255886996
-0.04563166149933444
-0.05124942785293639
-0.05260776903159431
0.07260963289817556
0.07202857025379676
0.06792009746981732
0.06150386875650855
0.05449609454675555
0.04792242493385805
0.04239246262414568
0.03839183183089154
0.03636838784091358
0.03648297893052027
0.03827255826973505
0.0405834983468022
0.04229661256612641
0.04322279272186725
0.043404696291831454
0.04284068512968307
0.0415419873101389
0.03952911240261732
0.036829677397546
0.033477557527000164
0.029513672056191865
0.024987803693592856
0.019961231314303707
0.01450953172995751
0.008724995759292224
0.002717997215384562
-0.003383342791436281
-0.0094349403421021
-0.015281339596989959
-0.020761957672911235
-0.025719228094223646
-0.030008275994833848
-0.033506431819415934
-0.03612245190627543
-0.03780384009319384
-0.038541208651629605
-0.03836946272463845
-0.0373650913340926
-0.03556604249742943
-0.033186589922702216
-0.0313465998283787
-0.03123850155962047
-0.03337038264419506
-0.037617515786175754
-0.04353120578214039
-0.050581588352113425
-0.05810787682408423
-0.06508547723821048
-0.0698951090742622
-0.07137445319879349
0.08564949456603531
0.08459141627832586
0.0807936817305268
0.07495474090118125
0.0679481250107315
0.06038989504001271
0.05279594507609571
0.045667228713986645
0.0394051613219282
0.03409205999026578
0.029335056040370996
0.024332606776964322
0.018797157006191417
0.013316215653019523
0.00828604834177393
0.0039309264201496715
0.0004289727680402214
-0.0021002524063258184
-0.0036031621475537483
-0.004094257188544424
-0.003652700569681211
-0.0024142487975299743
-0.000559444165305083
0.0017004817791897479
0.004138682921483732
0.006527521430103641
0.008651871936203856
0.01032045394104069
0.011374526915582682
0.011693902775212142
0.011200322737647114
0.00985824340085278
0.007673764339698272
0.004691506534083719
0.000990419739658139
-0.0033214359093422345
-0.008112685207441569
-0.013234568867451755
-0.018384641453092047
-0.023059395274412583
-0.0275941046181461
-0.03282396852322555
-0.03916256220579967
-0.04653186737838732
-0.05451203277257718
-0.06256055462711393
-0.07011566726963085
-0.07654938467255605
-0.08104135612444405
-0.08292796111648838
0.090831199359897
0.08911808815201118
0.08509918781387796
0.0790561097392487
0.07125930416268733
0.06201144826890852
0.05172137601268781
0.040864803595128014
0.029823853665845567
0.018730628683237136
0.007452220275766307
-0.004275392472172303
-0.01604813927590283
-0.0268365476777916
-0.03600350785542642
-0.04313474619990642
-0.047913056155195644
-0.0501380768691732
-0.0497379641474186
-0.04677273301164711
-0.04142907566230485
-0.03400754957890855
-0.02490390551966254
-0.014585858035231162
-0.003567844857297136
0.0076148731371218316
0.018431344708645988
0.028377783506821182
0.0369982604857366
0.04390227672434694
0.04877911738842295
0.05140906902752013
0.05167063644200983
0.04954423490968773
0.045111458737341494
0.038550221713282096
0.030125308070472954
0.02017533610188097
0.009238751688356209
-0.0017726135685877807
-0.012521098595161234
-0.02328271199485578
-0.034185332428085025
-0.04508398654769218
-0.05557872561184092
-0.06516716795296358
-0.07341095135213298
-0.07999759225518747
-0.0846850297154403
-0.08720151953438154
0.0890712912400943
0.08667897684533024
0.08209687583503625
0.07532011935979849
0.06627884381938044
0.05508854881337841
0.04206944590618363
0.027661040528146434
0.012272524496115638
-0.0037970531552220517
-0.020304987635498466
-0.036953490356509404
-0.05292702234357489
-0.06710835533604673
-0.07875338527911735
-0.08732440619861466
-0.09241588819768645
-0.09377818266332488
-0.09133190895609376
-0.08517185182681737
-0.07556071955166693
-0.06291389389645927
-0.047776401934936014
-0.030794976074716335
-0.012686488996368244
0.0057947992052535145
0.023889532740942156
0.04086438703107485
0.05604093732568751
0.06882182875055345
0.07871368577148548
0.0853465658962309
0.08848819862060481
0.08805337982039517
0.08410677887005219
0.07685888022193256
0.06665475556141383
0.05395602267826757
0.039412713971449624
0.024027181172155597
0.008550285077432744
-0.006727541098288837
-0.02155821963029541
-0.035636086353073436
-0.04854671764503434
-0.05984012194097831
-0.0691804990003248
-0.07644473305962877
-0.08171068987716962
-0.08496558016421438
0.08191369936528095
0.07896422695217474
0.07374016406074482
0.06609803119829902
0.05587189493024096
0.043117718058985226
0.02810769914947105
0.011256581428394958
-0.006969881749329842
-0.02607814635197102
-0.0454961946640921
-0.06453307796542912
-0.08225271592280814
-0.0976716514337812
-0.11004534821204788
-0.11878974650971974
-0.1234686600475507
-0.12381848277205586
-0.11976257163264153
-0.11141481394513032
-0.09907298375397894
-0.08320258758718042
-0.06441329688760614
-0.04342961267503199
-0.021058233386132913
0.001846210745809082
0.02441601231540829
0.04580447625255711
0.0652182396842491
0.08194845590567264
0.0953981485582816
0.10510702835285518
0.11077028001694478
0.11225197320021847
0.10959041056659494
0.1029952344707817
0.09283543081677546
0.07961900208231223
0.06400427024967643
0.046877932574149454
0.02911278813855926
0.011374116151445198
-0.005782054474584816
-0.021874900543740007
-0.03644834974533511
-0.04908766186084405
-0.05951045008238075
-0.06764639051388659
-0.07364610385365836
-0.0776102031297906
0.07119761378059938
0.06791124608186123
0.06220452529000284
0.053937731722019565
0.04303709511909204
0.029601434689336303
0.013898523393703644
-0.0036629059203214503
-0.022565174925389998
-0.042190994834973856
-0.06182133851569638
-0.08065535655019183
-0.09784830663029591
-0.11260521631144235
-0.12424385242783573
-0.13220383623330212
-0.1360707735413507
-0.1355984652172991
-0.13072141891257535
-0.12155717762984047
-0.10839929476792234
-0.09170205574375839
-0.07205851276554015
-0.05017377599420357
-0.02683529584766626
-0.0028812946617283943
0.020831332083546643
0.043460029417442016
0.06420766798186033
0.08235467057146474
0.09728728485673531
0.10852394897416313
0.11573639261551025
0.11876437799140435
0.11762239299682462
0.1124973578184477
0.10373676028420604
0.09182774730932561
0.07737321942084804
0.06108384936432751
0.04373020889097835
0.026054382771542997
0.008726451804534009
-0.007674612559569187
-0.0226561035620799
-0.035816668959128016
-0.04687657698567439
-0.05570836445292403
-0.06234275189110979
-0.06685552902488925
)
;

boundaryField
{
    "(inlet|outlet)"
    {
        type            zeroGradient;
    }
        "(front|back)"
        {
            type            empty;
        }
    "(top|hills)"
    {
     	type            zeroGradient;
    }
}

