/*--------------------------------*- C++ -*----------------------------------*\
| =========                 |                                                 |
| \\      /  F ield         | OpenFOAM: The Open Source CFD Toolbox           |
|  \\    /   O peration     | Version:  v1806                                 |
|   \\  /    A nd           | Web:      www.OpenFOAM.com                      |
|    \\/     M anipulation  |                                                 |
\*---------------------------------------------------------------------------*/
FoamFile
{
version     2.0;
format      ascii;
class       volScalarField;
location    "0";
object      nutCoeffs6;
}
// * * * * * * * * * * * * * * * * * * * * * * * * * * * * * * * * * * * * * //
dimensions      [0 0 0 0 0 0 0];

internalField   nonuniform List<scalar> 
1000
(
0.042666774222073066
0.04886723443032533
0.05345259907521798
0.050188121756948825
0.03675880850356816
0.01528242931567278
-0.0108489694502106
-0.037679337923237154
-0.061118019162989694
-0.07911220343825125
-0.09280229836171411
-0.10479938517145401
-0.11678678368974377
-0.12892753177339059
-0.14107963488618003
-0.1530754050834942
-0.16471922415831022
-0.1757925438920851
-0.18606269982013418
-0.1952945750592824
-0.20326313601714618
-0.20976602484328666
-0.21463456716233092
-0.21774342195005444
-0.21901707562730643
-0.21843389599283566
-0.21602694768008682
-0.2118816494476778
-0.20613052503300264
-0.1989451395388755
-0.19052638102174088
-0.18109260438592165
-0.17086876318277774
-0.1600749317248451
-0.14891659315067204
-0.13757771148258746
-0.1262160885618358
-0.1149620932625912
-0.10398985499822772
-0.09354390688313652
-0.08257944174315363
-0.06883830406777264
-0.05118049981103519
-0.03123609485023902
-0.012494111422611958
0.001628070599344857
0.0082582080339552
0.006049463557326634
-0.0012608855692156512
-0.006550223895254822
0.03741400186628519
0.04430529178849813
0.05316064702826132
0.05765404289629968
0.0529048257760355
0.03864211303010897
0.0165778119897089
-0.010357680739514725
-0.03783490240513508
-0.06185577262750389
-0.08091371945339035
-0.09556168371028669
-0.1079760303080752
-0.12015696732517023
-0.13241269225616775
-0.14455116930289164
-0.1563476108522986
-0.16755263856868738
-0.17790450447547607
-0.18714405449517743
-0.19503055637042988
-0.2013564545680059
-0.20595951376304134
-0.20873215708492218
-0.20962638410229584
-0.20865499265926932
-0.20588874897285123
-0.20145033251580327
-0.19550508645914047
-0.1882502649457653
-0.17990327033337
-0.1706889585719728
-0.16082933132002072
-0.1505332698727128
-0.13998898333490065
-0.12935918045414563
-0.11877863958676818
-0.10835451096473307
-0.09778804789468487
-0.08555589709425848
-0.07015446139959913
-0.05123106578469334
-0.030096635091772957
-0.010230165046624742
0.004607104344503574
0.011926432936502035
0.010421326578029737
0.0010115442147681619
-0.01020731376415915
-0.016148089229926242
0.028013040549232666
0.03456648641604717
0.04618783438859306
0.05741368285388895
0.06180954719077458
0.057060424250747165
0.04309804907338479
0.021281136021488012
-0.0049166081704664555
-0.030655641719275817
-0.052101568153094975
-0.06736611471013138
-0.07855733796205798
-0.08918522984823157
-0.09995298465011086
-0.11065778479700099
-0.12106411422665994
-0.1309145592783303
-0.13994484151427244
-0.1479008904398148
-0.15455617374955483
-0.15972701536877768
-0.16328400152192593
-0.1651594890184503
-0.16534965921674186
-0.1639118475167675
-0.16095770558347372
-0.15664317956056503
-0.15115631229692922
-0.1447041734935862
-0.13750055006864778
-0.12975427945717433
-0.12166035432198569
-0.11339277559257013
-0.10509961513622344
-0.09690102267707225
-0.08888882436354412
-0.08112797448208806
-0.07286357885394723
-0.06098903229280448
-0.044018006067139966
-0.02396051357475302
-0.004386155748586689
0.010366031899576801
0.01732672517003624
0.01553372384510024
0.005424004609836863
-0.01014127834930773
-0.02378105553556389
-0.029429902533660457
0.015504656267821517
0.020713010607849403
0.033133090025416576
0.048901303388966304
0.061216123221624695
0.06639671748334916
0.06289642224317678
0.05045108717539951
0.030968469972274412
0.008863772083939932
-0.010766933866721996
-0.024041382604954552
-0.03243672290242161
-0.04011394935765888
-0.047975331564366695
-0.05581827918495602
-0.06341271075338668
-0.07051447519773779
-0.07688240227991526
-0.08229648501017137
-0.08657505745112047
-0.08958879703092093
-0.0912698702564654
-0.09161576013336699
-0.0906868848831548
-0.0885991800861659
-0.08551236930488862
-0.08161577228403173
-0.07711315263693413
-0.07220833843625105
-0.06709317651972119
-0.06193805760150811
-0.0568863281967428
-0.052051007437459
-0.04751423557908787
-0.04332835820609049
-0.03951814659804261
-0.03608351403696943
-0.03197412994524908
-0.02324838458441646
-0.00893784834077946
0.006961478964317682
0.019593377741944203
0.024982738678341748
0.021689562924972546
0.010372004728766773
-0.007084913215292181
-0.026602308734992617
-0.0407335028379558
-0.04515378661379522
0.0015260880512232172
0.0045629873356807385
0.01567744140012296
0.03299552604969518
0.05048966514772905
0.06397758141489841
0.07100403364467332
0.07002745714210071
0.061181032422468334
0.04742777483429902
0.033719232624910785
0.02482516227878891
0.020278714773124176
0.016385784901911924
0.012316032273035427
0.008261413023126824
0.004431630210275542
0.0010383007421077691
-0.0017230491800583226
-0.003690822805693269
-0.004753178359190323
-0.0048594406805069325
-0.004025620956691238
-0.00233359497770614
7.63228476909457e-05
0.003018243372771393
0.00627772479836419
0.009630170555001672
0.01285909962598431
0.01577160418260595
0.018209638668960776
0.020056796832966066
0.021240111029095458
0.021728254235043484
0.021527330958737195
0.020675571385062985
0.019237944871172155
0.017301515087731457
0.01596121417324223
0.018930172461254304
0.026326370463511523
0.033256894983725874
0.03496112537882789
0.028860074787820825
0.01525655076468657
-0.003938779617709029
-0.026007128926861186
-0.04654351874073374
-0.05913717056968077
-0.0615523902529874
-0.01191000502891496
-0.011550875865374455
-0.003605318449707965
0.01203312593372894
0.030977350520336264
0.04940535582384626
0.06464315979198784
0.07446304831760708
0.07747389242397724
0.07464014035691861
0.06949592466834023
0.06635798225282882
0.06586450087906315
0.0657897583753244
0.06562745783864148
0.0655478349780852
0.06572506342575246
0.06632069245444583
0.0674663867518841
0.06924771021803544
0.07169133522226118
0.07475716022975117
0.07833659155630619
0.08225807776394624
0.08629911425018767
0.09020366569629486
0.09370376244739703
0.09654131890034684
0.09848912965071269
0.09936736228987313
0.0990543978563623
0.09749126441187964
0.09468017292723703
0.09067844615502227
0.08558948709931608
0.07955338512576648
0.07273781462507752
0.06533071530821494
0.05822149705982536
0.0539038114761663
0.05159732047631957
0.04689275092073964
0.036411674044538295
0.019501157461927578
-0.0020901794790307744
-0.025838305810522374
-0.04889915797487886
-0.06736640215424297
-0.07665105317595758
-0.07657522286171066
-0.02272073419071805
-0.025139418624673997
-0.021648088366805266
-0.010513062202956905
0.005955952179142205
0.024952303131017043
0.04421719281479292
0.06150294493513213
0.07448001077872539
0.0821390298127201
0.08582929377520275
0.0883062203629067
0.09111644336775122
0.09405853882108395
0.0970995769521982
0.10037831878594931
0.10402123038031226
0.10812717174745658
0.11275262253432626
0.11789926436423197
0.12350522095832739
0.1294414214782766
0.13551373318347343
0.14147187319151086
0.1470244463034791
0.15185884888781948
0.15566501045653663
0.15815919353271107
0.15910617785775558
0.15833668435064652
0.1557582008019015
0.1513587073683276
0.1452036427310301
0.13742744265225748
0.12822163354979046
0.11782215769014996
0.10649694125309662
0.09453498208868255
0.08246067737201429
0.07098633969164579
0.05867311053047801
0.04274839392281476
0.021977351340299323
-0.002437238948481288
-0.027926868350603314
-0.05202271761818322
-0.07235146797492112
-0.08609062745940199
-0.09085093516773735
-0.08817208867833753
-0.029067867319407994
-0.03394460632798264
-0.03540423225233213
-0.030646170369684082
-0.0199141197507367
-0.004688759902974384
0.013594976328228632
0.03322074966151955
0.051655236480892125
0.06646113067134989
0.07673810464870269
0.08314869536865563
0.08772922627051102
0.09223697149421832
0.09711374383402735
0.10246364838112697
0.10836235190770697
0.11484439880989321
0.12189264321411876
0.1294305966240447
0.13731851728646594
0.14535396049073815
0.1532770473288862
0.16078136411775606
0.16752963509646393
0.17317380951233186
0.1773783203347541
0.1798433755509492
0.18032723731083308
0.17866386349833363
0.17477467328215576
0.16867310656919726
0.1604624597625981
0.15032797592133398
0.1385241565412582
0.12536090201294103
0.11118831327851564
0.09638237554798589
0.08108261083868099
0.06426439538305087
0.04425901898907885
0.02047032625249298
-0.006148845859371087
-0.033096501893744974
-0.057692615517621094
-0.07802707772395692
-0.09255412333065292
-0.09980601503165243
-0.09957097109102196
-0.09457309146613817
-0.029623385008115493
-0.03627573939003308
-0.042349551466820796
-0.04458552528853622
-0.04151772278787914
-0.03334139858421189
-0.020567643813678992
-0.004096882595494444
0.01398724199207856
0.03068510908130078
0.04345795457137123
0.051050809236822876
0.055476070307463585
0.059801419599477795
0.06480367406097025
0.07055982394430371
0.07710557713440246
0.08442578394140143
0.09244829900857199
0.10104057031064512
0.11000997975132275
0.11910752005785966
0.1280348599456604
0.13645575242835697
0.14401067309857127
0.15033525572329365
0.155081377317753
0.15793881935274443
0.15865648506269206
0.1570603475448834
0.15306653473329776
0.1466883666214804
0.13803683703090955
0.12731517168888148
0.11480806853726301
0.10086769093055023
0.0858971310040614
0.07033278240676114
0.0540400437553337
0.034842382490285914
0.011310623762660796
-0.015152449399304305
-0.04199283470565694
-0.06621056805456121
-0.08559779510559488
-0.0990484403195452
-0.10593500591547499
-0.106115140936671
-0.10121232388112797
-0.09453422279173111
-0.023756086934133027
-0.031248352392331348
-0.04087341141308636
-0.04944436544941747
-0.05432814305770243
-0.054721654663196256
-0.050375826198378715
-0.041393129285057985
-0.029019585230220676
-0.015938303894477167
-0.0053040086685472694
0.0004653508337607524
0.0029073429970091747
0.005417591590737644
0.00888519821284761
0.01337851908089166
0.018917716828305262
0.025467833671045458
0.0329350125941915
0.04116591608843327
0.04994979738937254
0.05902350681081596
0.06807882116135079
0.07677308214228909
0.08474238776924456
0.09161795955561193
0.09704507473374752
0.10070309005172205
0.10232578456285063
0.10171966340548994
0.09877879138186572
0.09349436589808276
0.0859587249877026
0.07636306922260737
0.06498921100001881
0.05219695292178542
0.0384069708806949
0.024081035888607678
0.008992290054955523
-0.009318186729681443
-0.03166770578158638
-0.055375072004945056
-0.07722089984542646
-0.09449262293211987
-0.10579949030376264
-0.1108349675726102
-0.10976238467746076
-0.10350822137830668
-0.09498388392552443
-0.08752397767246385
-0.01163039192292697
-0.01891093191870206
-0.030514749512832503
-0.043710737983036506
-0.05528384970996311
-0.06382406682901288
-0.06862047985933073
-0.06920758061846016
-0.0659248269615172
-0.060521361931109616
-0.05573726311463157
-0.054160073234253626
-0.05498496342847576
-0.05544313640212717
-0.05475343085899001
-0.05283075689879037
-0.04963865104445324
-0.04519560441475631
-0.039578502634545695
-0.03292356317637743
-0.025424601186411395
-0.017328827698994825
-0.008930364036269747
-0.000560630638360699
0.007423916840853694
0.01465689944087614
0.020780026223516178
0.025462159806037214
0.02841932246409508
0.029433294521860512
0.028367407838002682
0.025178283603108247
0.019922121225397115
0.012755200297564226
0.003928110370750612
-0.0062254348291496744
-0.017304871853336568
-0.028863344672105065
-0.041041841373029325
-0.055746178935986816
-0.07299796786440355
-0.0897762918151445
-0.10314339518315925
-0.11124347227480741
-0.11358690792035021
-0.11048242913689514
-0.10262337986308892
-0.09161872825026783
-0.08104201311322119
-0.0738249756225861
0.005788942062923286
-0.00025647370523890575
-0.012034199359513196
-0.027482470247594846
-0.043331027827634344
-0.057945463134502835
-0.07045618753304236
-0.08012951117406389
-0.08657161671574823
-0.09036986865447816
-0.093156493728317
-0.0968476280068108
-0.10139028099026524
-0.10525416181700245
-0.10790968952423553
-0.10923040434434816
-0.10913453297881542
-0.10759272169105448
-0.10463364643671029
-0.10034701612311825
-0.09488410595684697
-0.08845505122783555
-0.08132336294933748
-0.0737966721601533
-0.06621450040557257
-0.05893308924284443
-0.05230737750388376
-0.04667251609524672
-0.04232421513917769
-0.03950085327303005
-0.03836791050465052
-0.03900588924786447
-0.04140315213398087
-0.04545374515349271
-0.050961241595869705
-0.05764790284328397
-0.06516912011055076
-0.07313234372130165
-0.08147882552683987
-0.09101737303830118
-0.10100590357586425
-0.1089161992324156
-0.1127742511827254
-0.1118284559816098
-0.10635482088662306
-0.09700464619727224
-0.0846984601683422
-0.07131251862581764
-0.060496047022075665
-0.054523195375873974
0.026836753057928507
0.022887388890887025
0.01267751971746523
-0.0024539521414783097
-0.019588768666018743
-0.037175507009336875
-0.05441547466201245
-0.07056365925545618
-0.08478242217994152
-0.09662542898491923
-0.10641102244849313
-0.11495262454837513
-0.12277159482185022
-0.12970516602275226
-0.13550966941582648
-0.14000199590591667
-0.14303804738134618
-0.14452344561893263
-0.14442234396504158
-0.14276356945634786
-0.13964328294213993
-0.13522363111269364
-0.129727543564381
-0.12342893415356421
-0.11663985472723414
-0.10969450857947664
-0.1029315519085415
-0.09667622192622309
-0.09122247335195562
-0.08681704135411075
-0.08364566394067505
-0.08182238596469575
-0.0813826350681675
-0.0822803645374395
-0.08438981670040624
-0.0875121255259833
-0.09138660488316185
-0.09570610611233009
-0.10018936102174739
-0.10441924118502367
-0.10710549707294045
-0.10671229010477838
-0.10249768997775523
-0.09473121056729725
-0.0841791193242028
-0.07156330038755317
-0.057766539778457505
-0.04457673122234579
-0.03526410125442011
-0.0313701864329459
0.04935572840884651
0.04809021679806322
0.040853744689541005
0.028336590453942347
0.012849098962871579
-0.0043431220165438015
-0.022641913832929624
-0.04145242070162651
-0.05979044760507518
-0.07653416646218644
-0.0909157574922159
-0.10267044387407019
-0.11261179115042799
-0.12164416231640197
-0.12974836392355196
-0.13668427593062538
-0.14224478507975133
-0.14626995623219397
-0.1486588719970993
-0.14937849266866432
-0.14846780165737544
-0.14603724456847084
-0.14226294840933482
-0.1373764347034822
-0.13165078126086885
-0.12538481755006434
-0.11888614532168205
-0.11245525236738539
-0.10637041934082356
-0.10087493272837872
-0.09616612195637095
-0.09238672312771368
-0.0896186576200059
-0.08787946013100034
-0.08712194570551911
-0.0872374907288661
-0.08806311497750523
-0.08939227132640372
-0.09078202386734834
-0.09085323446324119
-0.08808438352738393
-0.08201399260332065
-0.07298215364132411
-0.061947639762749265
-0.04985051073534474
-0.03728236804572542
-0.024916484733055716
-0.014214732173397578
-0.007793537771097486
-0.006534298313400942
0.07099269745086877
0.07265359661604892
0.06925031193012833
0.060979798162781096
0.049444823585762514
0.035532338889487494
0.019603249530188705
0.002041053241607372
-0.016259199745985418
-0.033937022229728615
-0.04962512487541013
-0.062337678384871115
-0.07289179240422539
-0.08271132584178721
-0.09188613556345704
-0.10013295884375964
-0.10719557952455919
-0.11286120973202159
-0.11697475028105069
-0.11944917769846383
-0.12027061879290009
-0.11949817903881442
-0.11725790169558006
-0.11373243460260335
-0.10914742766982725
-0.10375668404410766
-0.09782718708859167
-0.09162585836237808
-0.08540772518063557
-0.0794062903925806
-0.07382534499481493
-0.06883190152176581
-0.06455059326972742
-0.061058977849682214
-0.05838491499350496
-0.05650650204190263
-0.05535487459955189
-0.05482046203397168
-0.05440984325805265
-0.052293449302498705
-0.047033691528817465
-0.03896852599178897
-0.029080756237288456
-0.018581501420171655
-0.008320081215206861
0.001336768744850909
0.00998657813165182
0.016596075389822097
0.019297631805524657
0.017711064512091222
0.08953775236702212
0.09399882807752934
0.09463451454155589
0.09133108666404297
0.08501884048385532
0.0762086459965947
0.06505493287854276
0.05174708114402166
0.036952230526779116
0.021889810833142967
0.00799515599039243
-0.00351090499762152
-0.013232716812996564
-0.022543973319995705
-0.03152400939325945
-0.039869083834016494
-0.04729624080200615
-0.053560651966407816
-0.0584705719850838
-0.06189842149652021
-0.0637864138790498
-0.06414680745256321
-0.06305662560687848
-0.060648277465169646
-0.0570975580354108
-0.05261069679964424
-0.04741217943804519
-0.041734140453172475
-0.03580739816368739
-0.02985418825048174
-0.024081641349214138
-0.018675695111809595
-0.013795119441059826
-0.009565755159194
-0.00607587483192444
-0.0033732641081526495
-0.0014648749959430547
-0.00031930271669213504
0.0004918206067249831
0.0027006837100620002
0.007436071275440859
0.014013872486685414
0.02132735993956347
0.02830075429037312
0.03433032476478603
0.03927007254206754
0.04296046669636536
0.04478731218778704
0.0435868474986277
0.039297451155090625
0.10324062079803259
0.11003977352143855
0.11428074728410281
0.1157026850543289
0.11469335537124797
0.1114552074068551
0.10600199339317008
0.09838756640312954
0.08901412783772496
0.07873474910002706
0.06866212751547689
0.0598414173396507
0.051979586265895696
0.04414934770636516
0.03636216934699887
0.028917763809425564
0.022100732731106836
0.016164101969199412
0.011315020656372066
0.007704078487186276
0.005419427313057803
0.00448598414876229
0.004869196798673296
0.0064825442135125
0.009197002869336402
0.012851218016390227
0.017260888694940586
0.022226780422872565
0.027541579541461483
0.032995773157208245
0.03838330742842394
0.043507860399121225
0.04818934284636507
0.05227072823268136
0.05562425969760536
0.05815608774053761
0.05980873112524822
0.060560926472244765
0.06069903980637591
0.06147090392356866
0.06360570942725863
0.06648645703821326
0.06927725141223273
0.07126510806821072
0.07213057767247949
0.07188667914034365
0.07054367639124304
0.06782815268415289
0.06314972045985492
0.0566101339528387
0.11104212818270587
0.11946628100460784
0.12637345911712441
0.13147179132019918
0.13478347117608452
0.13630316163401593
0.13597119862013898
0.13377197301860883
0.12988628282573042
0.124763385748986
0.11904676464697599
0.11340621400184762
0.10783537930313254
0.10196955063015405
0.09592867990289444
0.08998684707347589
0.08440698743898242
0.07942697457177227
0.07524728038275301
0.07202177192639235
0.06985242087957805
0.06878785258181247
0.06882586646561002
0.06991841765443271
0.0719782495697468
0.07488577571813781
0.07849542317091471
0.08264114220020985
0.08714132904842345
0.09180358507603441
0.09643021226530885
0.10082473026065653
0.10479923670259463
0.1081823499895341
0.11082643752277449
0.11261357367435632
0.11345911526398908
0.11331271767291458
0.11230338087211623
0.11107943333740997
0.11000484015359832
0.10874578872661235
0.10688985748105996
0.1041260717092492
0.10037095162616202
0.09572378119201325
0.09028801311753044
0.08402696480697085
0.07675769869930388
0.06864175060452417
0.11267612291360904
0.121883103239409
0.1302333211422796
0.13746714065064392
0.1434248472849924
0.14799776951805632
0.1511046560348155
0.1527106218979257
0.1528645133423036
0.15172615432021658
0.14955875217453865
0.14668560740110692
0.14327070077196646
0.1393677435507416
0.13516409239181237
0.13089217884343513
0.12677527368941385
0.12301701918214301
0.11979225452667498
0.11724028376887104
0.11546092896519677
0.11451340732812482
0.1144175255283906
0.11515662707831541
0.11668105017222917
0.11891160889856955
0.1217425797521883
0.12504415535506633
0.128665131956301
0.13243641833667694
0.13617606937757895
0.13969612086958835
0.14281093434598932
0.14534625189737194
0.14714794239706414
0.14808889354862295
0.14807376214021942
0.14704070123937152
0.14500382019476976
0.14215000587930843
0.1385990951028614
0.1342876995800851
0.12914972314340448
0.12316540655978472
0.11639667369606112
0.10897290198190987
0.10103285567433183
0.09267414956055194
0.08395424218372463
0.0750419760810834
0.10862685514344017
0.11778112349453193
0.12632185214478395
0.13404651572164936
0.14077655505190606
0.1463912062680234
0.15082037231077106
0.15403943387426294
0.1560630770644363
0.15694556889646347
0.156786097265144
0.15572962550228794
0.15396029085105822
0.15166931338849007
0.14904221805972037
0.14626176574238578
0.143502005945088
0.14092141440954892
0.1386574855257648
0.13682302346462868
0.13550427694086406
0.1347605809948413
0.13462498069947293
0.13510552723701433
0.13618574957631024
0.1378248253712091
0.13995689369278558
0.14249028426234606
0.14530749621107283
0.14826702850191031
0.15120751830846627
0.15395482072209982
0.15633124213039368
0.15816602683564665
0.15930570438566732
0.15962256516842277
0.15902053540362862
0.1574376887751922
0.15484485747108812
0.15124045883908846
0.146651719706258
0.14113590250933025
0.134771119385207
0.1276516179749592
0.11988677273176902
0.11160120286797226
0.10293175891167299
0.09402070318913133
0.08501545164154276
0.07607220058315686
)
;

boundaryField
{
    "(inlet|outlet)"
    {
        type            zeroGradient;
    }
        "(front|back)"
        {
            type            empty;
        }
    "(top|hills)"
    {
     	type            zeroGradient;
    }
}

