/*--------------------------------*- C++ -*----------------------------------*\
| =========                 |                                                 |
| \\      /  F ield         | OpenFOAM: The Open Source CFD Toolbox           |
|  \\    /   O peration     | Version:  v1806                                 |
|   \\  /    A nd           | Web:      www.OpenFOAM.com                      |
|    \\/     M anipulation  |                                                 |
\*---------------------------------------------------------------------------*/
FoamFile
{
version     2.0;
format      ascii;
class       volScalarField;
location    "0";
object      nutCoeffs10;
}
// * * * * * * * * * * * * * * * * * * * * * * * * * * * * * * * * * * * * * //
dimensions      [0 0 0 0 0 0 0];

internalField   nonuniform List<scalar> 
1000
(
0.1238682326687401
0.12301597980565394
0.12185885779593837
0.1215996486219088
0.12189965798964772
0.12191448417605076
0.12070950832798022
0.11732977909149693
0.11135659018981543
0.10376794392182564
0.09648409705295789
0.09079322950896809
0.08563644357213332
0.07963711974239056
0.07275102911365702
0.06523506868693793
0.057360828902447376
0.049396161234043036
0.041586475074201434
0.034136681507583644
0.027195524270437015
0.020842826194084597
0.015082298098809366
0.00984022858274239
0.004972212995013647
0.00027809258533570424
-0.004476394531641726
-0.00953149064202061
-0.015103635775267462
-0.021356659187026367
-0.028377319608711912
-0.03615977527342801
-0.044598724316379706
-0.05349432841868385
-0.0625668317549726
-0.07147888446682182
-0.07986418915989386
-0.08735809319885122
-0.09387788544384436
-0.10067091435436296
-0.10889715396414971
-0.11756541132468966
-0.12497417394123228
-0.13009499640120584
-0.13300390816366983
-0.1341214120405177
-0.13382920505096743
-0.13287616551812304
-0.13251410169002853
-0.1325265275565239
0.12020207980666332
0.11880065197479635
0.11719132827384053
0.11611909097311145
0.1156141607334335
0.11557961382823602
0.11568334975298379
0.1151348597470591
0.1128285686831938
0.10834739584249985
0.10234595177128888
0.09544993001266233
0.08740458380886694
0.07825423454887709
0.06841901089236505
0.05831658788488517
0.048364903802198836
0.03895262093168398
0.03041078527844749
0.022987314618054595
0.0168264490720101
0.011954792649412424
0.008276636444629705
0.0055787738364388596
0.0035468967906409836
0.0017921988391540675
-0.0001133526495793073
-0.0025959545518603696
-0.006038160581787462
-0.01073978939163681
-0.016886579388139145
-0.024530178957987234
-0.03357983919118433
-0.04380837015638148
-0.054869862835299
-0.0663270498953622
-0.07768608545203746
-0.0884349178341475
-0.09804512329808748
-0.1063878032361594
-0.11380539400132002
-0.11985121493527205
-0.12390256547950103
-0.1261274216811033
-0.12718669746101832
-0.1274161236655743
-0.12690360782267707
-0.12607153578105473
-0.12592690130114026
-0.12643521185643924
0.1144076623307926
0.11295667582514829
0.11141760908758595
0.10960567141559727
0.10753398193648461
0.10580992727110125
0.1049421402198318
0.10477663173605298
0.10410590139157365
0.1014100915130505
0.09584332032388654
0.08694533415452838
0.07523193716000248
0.06237057137083676
0.04931709064679571
0.03667780934715502
0.025032471013836974
0.014892701596384419
0.006664200872547677
0.0006146634613073813
-0.00314982625779368
-0.004697775442067964
-0.004272446059756715
-0.0022785102519536173
0.0007456034072097344
0.004167590998195078
0.00731131749289923
0.009511718752432941
0.010170172170691742
0.008804512515120667
0.00508908039647218
-0.0011193286226562171
-0.009770669173940157
-0.020627157967261514
-0.03328374247614645
-0.047200009934649685
-0.061741800626536655
-0.07622823759938996
-0.08962442759455574
-0.1002253651852946
-0.1075447292218623
-0.1120361775161762
-0.1143686390921406
-0.11570379967895389
-0.11688722472427028
-0.11786737444813208
-0.11822841641617206
-0.11791302007119758
-0.1177768209220909
-0.11835824715020542
0.10607661509855652
0.10514344253292511
0.10443892042106387
0.10251201565152017
0.09888905247279138
0.0945911802541589
0.0908993119948519
0.08850003429166328
0.08662528366558386
0.08327174331664851
0.07638818461861671
0.06443558650796725
0.048538099216062884
0.031776319419327646
0.015595443474843857
0.0007966477299183857
-0.011883185028484363
-0.02182379397283548
-0.02856794942622168
-0.03185812425543628
-0.03166101540329084
-0.028177291781404917
-0.021835357724098482
-0.01326780321101183
-0.003271808125294634
0.007244355723891154
0.017325990113982306
0.026039698583104568
0.03254233714282668
0.03614133911411525
0.03634335347904093
0.03288694388183208
0.025756607327632422
0.015178967176380617
0.0016008703027586748
-0.014346219794546538
-0.03189366352609764
-0.050190657344056554
-0.06774589762147036
-0.08146799953567661
-0.09016031390474528
-0.09515605397358937
-0.09819457050084004
-0.10097821701476994
-0.10414118810217995
-0.10706376811650789
-0.10876620600556965
-0.10877026485192139
-0.10809579543779342
-0.10823736487746019
0.09475695722367057
0.0948838166008641
0.09587351928226684
0.09487148783907065
0.09049053631148682
0.08374868704256233
0.07639453015715536
0.06985472418215088
0.06410871618638027
0.05736980973791215
0.04709725225595239
0.031149150263006315
0.011044494983769982
-0.009296311376125653
-0.02809867716725347
-0.044390302382209916
-0.05730582852316745
-0.06614805369153931
-0.07043998855136878
-0.06996393265750671
-0.06478455393627253
-0.05525402507884607
-0.04199821304753433
-0.025882980754791413
-0.007963252821603168
0.010582470410927388
0.028529192810375623
0.04468419068291474
0.057966165539381956
0.06747452521944125
0.07254489069691249
0.07278780637166447
0.06810624783349532
0.058694159397537256
0.04501488899562358
0.02776392299894308
0.007817311595092037
-0.013828779800579963
-0.03538213710258572
-0.05290614418120818
-0.06469522544024181
-0.07255839853247545
-0.07873560256115336
-0.08489878618979108
-0.09116997586366324
-0.09635201379071266
-0.09903037843440778
-0.0985713408462858
-0.09658473718721605
-0.09577146468003148
0.08003966934564453
0.0816480600916524
0.08511485592356473
0.08626869574475994
0.08252597296764422
0.07447930735782211
0.06392530073494804
0.052704520110909855
0.041556797251510215
0.029455033721870867
0.014232062258706588
-0.006082466739652326
-0.02976400434100081
-0.05280872477235981
-0.07334390921983971
-0.09027914989477354
-0.10267132171845371
-0.10979045667847201
-0.11117394420448429
-0.10666519852598169
-0.0964338976146666
-0.08097562710142821
-0.06109114835269313
-0.03784418415513625
-0.012501686808675859
0.013539967521795275
0.03884096200938026
0.06200271485990518
0.08175412596231905
0.09702549591013714
0.10700828546717689
0.11119768591743272
0.1094132114536092
0.10179992962722019
0.08880886551488457
0.0711605250668647
0.0497925179023923
0.025797074905432853
0.0010467144078358422
-0.02040814504411735
-0.036584321028259
-0.04912197044321648
-0.06001818122830015
-0.07038070279455852
-0.07970052846506874
-0.08638585940525019
-0.08888459931943057
-0.08679234713968575
-0.08268662843485432
-0.08050287082502416
0.061657114491116743
0.06496668376464994
0.07144671419235184
0.07590418383279561
0.07448653481611524
0.06703659744191308
0.05498491430342131
0.04015927415977434
0.023826138773836786
0.005963537412250949
-0.014512610090160829
-0.038621643252017744
-0.06455876975657288
-0.08894353482716755
-0.11004355043539342
-0.12672524041433372
-0.13803144584603175
-0.14324749015404645
-0.14195385093565988
-0.13406190355821856
-0.11983027102334745
-0.09985940407162065
-0.07506590729561735
-0.046635170175252316
-0.015957111620258566
0.015451079022220975
0.04603325484203492
0.07428072188829378
0.09881863008746952
0.11848056497191373
0.13236887766438105
0.1398983860224506
0.14081866990935576
0.13521829743286393
0.12350862397126494
0.10639044042897092
0.08480492724962234
0.05987218611553725
0.03332050370378113
0.008614585522531
-0.01218456307915187
-0.029878672415665174
-0.04554154982824622
-0.05938740573905459
-0.07038516862566845
-0.07687961152555416
-0.07755611341640975
-0.07260683893388074
-0.06576534089976036
-0.06198506945647462
0.03958456051490268
0.044562622240826105
0.05421017869052289
0.06275982201361259
0.06525119400006807
0.06062422596811032
0.04963665603475006
0.03370068529824853
0.01423109880560477
-0.007871945860384566
-0.03226869818398021
-0.058523307502438324
-0.08481097656102807
-0.10883551944551091
-0.1291912443186656
-0.14478484606040185
-0.1547109506960841
-0.15831334819755505
-0.1552330868007194
-0.1454394593645772
-0.12924192224132602
-0.10728148705148112
-0.08050261996451684
-0.050105284158129156
-0.017481831647180222
0.015857587067515066
0.04836937167715913
0.07855744838855878
0.10505507518155667
0.12669444190709644
0.14256372616034785
0.1520491205709932
0.15485785579731132
0.15102475782873148
0.14090051957354
0.12512374071164073
0.10457788151536737
0.0803357425797345
0.053807401056003665
0.027409813186922927
0.0031642935107940016
-0.018428582220841417
-0.03713501807253284
-0.052261824374194035
-0.06255729614887731
-0.0666772295378764
-0.06387287467854437
-0.05515523828053388
-0.04533910464724721
-0.039982720190588586
0.01413297327489446
0.020486365535616956
0.033003084580862395
0.045857204966353704
0.0533451636123978
0.05355236056809035
0.04643128978149431
0.032702829823052795
0.01352855985161389
-0.009622840850274659
-0.0350977666484582
-0.06094288409113038
-0.08533127464063894
-0.1071651794755424
-0.12546203185015847
-0.1392489434589247
-0.14773015471363493
-0.15034059848398085
-0.14678665034763325
-0.1370713567253773
-0.12150262674554912
-0.10068310239044675
-0.07548350474993619
-0.04699855505916266
-0.01649112821684257
0.014673974134616952
0.045103001286202496
0.07344438434327934
0.09845872980204404
0.11908003308149795
0.13446601679157985
0.14403568341177253
0.14749170200281833
0.14482862198160015
0.13632577346827468
0.12252591150199206
0.10420005101757306
0.08230045535309728
0.057831418567469865
0.032046143067307485
0.006897312487040853
-0.0157247416069461
-0.034322715035497234
-0.04759040681640203
-0.05443860554663069
-0.05412892307297421
-0.046655729611310495
-0.03385687479108057
-0.021302876279385697
-0.014645452088472037
-0.013984437375647378
-0.006771391647713607
0.007877053515112701
0.02456855586492264
0.037349614992527494
0.04367673243737855
0.04275425700790997
0.03452286660696307
0.019583359758320006
-0.0005217513366790877
-0.023323675292227678
-0.04574315263201409
-0.06596175877079594
-0.08386537275348287
-0.09889648818038482
-0.11026927530738498
-0.11734269916802745
-0.11966337398278334
-0.11699798197197615
-0.10935261811101557
-0.09697823376143755
-0.08036148611963799
-0.06020262419265328
-0.037380128860225285
-0.012906246874164286
0.012124880724024767
0.03659409411431368
0.059413117074005234
0.07957968523579573
0.09622605179982242
0.10865969284432167
0.11639487449981235
0.11917226933432405
0.11696791233233401
0.10998991258862219
0.09866356095100574
0.08360490058054458
0.06558396041558144
0.045197795524633544
0.022742244491896026
0.00011603889296103675
-0.019728580957002473
-0.03447427688464163
-0.04267830678953806
-0.043741689850034446
-0.03765821873951807
-0.025148021544845394
-0.008677260045342073
0.0059178822702512434
0.01338945768260094
-0.043633779958857054
-0.03622125793022127
-0.020515421073964937
-0.0010887446450308059
0.01637805036761328
0.0290480936148408
0.035583998578920396
0.03524214259015172
0.027926986828143617
0.01478516388956732
-0.0015993279154534786
-0.017725181623103253
-0.0318236852040436
-0.04434870674708437
-0.05510064095989729
-0.06352926930447057
-0.06917857533802221
-0.07171773924403714
-0.07096479034579094
-0.06690056022356546
-0.05967305083536559
-0.049591274603982154
-0.03711048070192345
-0.022808690592911726
-0.007357128698567673
0.008514084518213052
0.024053650326441967
0.03852664388229017
0.0512520090039478
0.06163614369370028
0.0692022479643773
0.07361337195181243
0.07468801965456076
0.07240795835977808
0.06691759399414093
0.058514312545535054
0.04763053719529226
0.03480758685924622
0.020295054088493893
0.0038229389684646454
-0.012772444707376329
-0.026109504456759886
-0.033713384540348154
-0.03448053781000223
-0.028468692909427946
-0.016340896507517032
0.0006418236729296393
0.019717561556486986
0.03531829776324756
0.04298922820715008
-0.07331343430432649
-0.06640059000613972
-0.05087414890409189
-0.030258557296472737
-0.009509338846238885
0.008601673595886355
0.022475523970862585
0.030907177413771244
0.03315525627111882
0.02966859321585058
0.022489116434169294
0.014768137007273785
0.008129130448082677
0.0019805051610335828
-0.0037428070856468554
-0.00875408645974783
-0.012798635987005258
-0.015672772011649006
-0.0172386266003548
-0.017434057243854148
-0.016276706656370456
-0.01386302717836619
-0.010362295018969814
-0.006006908968770999
-0.0010790870116430251
0.004104467722387555
0.009210196802833972
0.01390578739211004
0.017879047352834167
0.02085578397257686
0.022615855253543187
0.023006835500071227
0.021953500832263
0.019463074486159585
0.015625315316104713
0.010607190474688277
0.004642276388421081
-0.0019846344123748668
-0.009290524012211058
-0.01771504386533258
-0.02556334843943648
-0.02974453800903266
-0.028263189450816722
-0.020668205895674398
-0.007646040015507232
0.009676742021008157
0.029774303816776097
0.04995405676934376
0.06537776606286848
0.07261025052304905
-0.10128886303808539
-0.0955004080516138
-0.08133873975520022
-0.06122678848158971
-0.039088658433909955
-0.01733106819047141
0.0024582434924249386
0.01887934543275707
0.03073562859880423
0.03771185823685596
0.04089725689162442
0.04250008655542812
0.04385500226425137
0.04451612776681351
0.04423287506014525
0.043023036487652586
0.04093721769979673
0.03805191028651535
0.03446280353534847
0.030278600773323474
0.025615877228469724
0.020594572623051772
0.015334153582117715
0.009949882838239372
0.004549635961961774
-0.0007687156260092382
-0.0059192357661985474
-0.010828298350204395
-0.015433782949358026
-0.019683062350857018
-0.023529894973133767
-0.026931594075742697
-0.029846431373998335
-0.03223233030004196
-0.03404743477959328
-0.03525230739564091
-0.03581387642978793
-0.035710777477653693
-0.03515703267192295
-0.03450535649912931
-0.03235071264513875
-0.02646911401610037
-0.015752441866531967
-0.0004759024324132473
0.0182280349972682
0.03903411012917711
0.060427867405184334
0.0800906764859125
0.09422121936612891
0.10045842485396743
-0.12579740696371047
-0.12158374798043398
-0.10971560435138888
-0.09161304651978343
-0.07004733968233831
-0.04687303052440617
-0.02346432345982305
-0.0011824307988031995
0.018572557915215518
0.0348700083794755
0.04776939057192586
0.05827642299889025
0.06728346867134861
0.07455569701604592
0.07970274424031037
0.08249115444712785
0.08277932033194278
0.08052181176559414
0.07577002351691645
0.06866940624071192
0.05945307351131154
0.04843185890378318
0.03598139417415559
0.02252619647852631
0.00852159633767754
-0.005564655032887513
-0.01927147025504352
-0.0321610324759252
-0.04383415264073588
-0.05394231409276061
-0.06219712989798239
-0.06837749382566216
-0.07233416863758448
-0.07399312797051018
-0.07335703996715648
-0.07050537639587026
-0.06559261845003325
-0.05884408853662481
-0.05062695694065132
-0.041145024083405625
-0.02945001127006682
-0.01446188534727265
0.0039503135205996315
0.024927926286915734
0.047145887788875365
0.06931840679468625
0.09014758179016048
0.10787339010760957
0.1198492650129082
0.12469614713800468
-0.1452825537371639
-0.14285580025024314
-0.1338049868452462
-0.11874908556222749
-0.09936410453132882
-0.07689850747010538
-0.052410740740222395
-0.027071266097109286
-0.0022513984613452298
0.02077676246282352
0.04125437137114771
0.05907294087960204
0.07457472250607006
0.08762055419494315
0.09769670659861221
0.10435859391421799
0.10729995701257794
0.10636679271010784
0.10156470987676192
0.0930587511752863
0.08116620949588517
0.0663422347184441
0.04915936684272856
0.030281509425944392
0.010434319754216145
-0.00962621820938707
-0.029146091563564493
-0.047402778502804596
-0.06373334759913293
-0.0775579993748431
-0.08839954817367585
-0.09589927895253865
-0.09982744056851907
-0.10009067774232579
-0.0967347054923899
-0.08994245350994126
-0.08002731255098415
-0.06742110974096578
-0.052621064414972656
-0.035775356512179994
-0.016506322003147868
0.005177736405470356
0.02861951829229139
0.052642465714211675
0.07596260013759479
0.09748849643237276
0.11623944415703913
0.13106062859538148
0.14039845859518357
0.14366673189586407
-0.1586058311232175
-0.15792268922047428
-0.15175207060502785
-0.14015578071768317
-0.12390885182412872
-0.1037167587059756
-0.08031630936974822
-0.0546297117191181
-0.027844225709163773
-0.001289188247426132
0.023819081286353547
0.046586832134954355
0.06679287340829126
0.08420976357889735
0.09820867053149453
0.10819257594209568
0.11373312646763392
0.1145919014810763
0.11073255474745447
0.10232274681840861
0.08972649216938902
0.07348639154553775
0.05429790858376478
0.03297632458047004
0.010419119174944534
-0.012433994522822876
-0.03464236914986173
-0.055302417107321845
-0.07358416273702748
-0.08876232553804762
-0.10024311314692347
-0.10758526662070136
-0.11051558525014277
-0.10893867312741747
-0.10294026278186602
-0.09278373818306986
-0.07889945478048692
-0.06186656898966092
-0.042294304290580356
-0.020425969178817175
0.0035414763677933656
0.028814943857756303
0.05428836946428344
0.07874009460620428
0.10107849363936518
0.12046292120480548
0.13623038238991259
0.14776099362646403
0.15439596843519277
0.1561079393818989
-0.1651860544648659
-0.16598160067118267
-0.1623375918442561
-0.15399318114257166
-0.1410933099344947
-0.12393977338163081
-0.10301079453373262
-0.07899885603110271
-0.05284988242487891
-0.02574986081755632
0.000978647819580589
0.02606346258416195
0.048820425275443044
0.06880496874240685
0.08529718638688293
0.09761876613092058
0.10527355095638631
0.10797285435054524
0.10565008450675864
0.09846367783846544
0.08678881061370743
0.07119808204183094
0.05243270217638001
0.03136629806886399
0.008963455132131143
-0.013764198246763726
-0.03580262980313938
-0.056177791071730286
-0.07399517810958298
-0.08847515361542835
-0.09898234161929133
-0.1050503065537563
-0.10639898899631985
-0.10294577160353569
-0.09480891663824802
-0.08230268481990548
-0.06592384683629918
-0.046329531653488736
-0.02421149324702988
-1.1927842068104479e-05
0.025616019312111174
0.0514937889167524
0.07640699004876726
0.09927807234388841
0.11925967496954189
0.13573945336227103
0.14830617536663956
0.15673017256991734
0.1609706493896015
0.1613262316082307
-0.16504228146779998
-0.16690233880695549
-0.16514083371463456
-0.15936776268727157
-0.1493854955036336
-0.1352621861517367
-0.1173111108583378
-0.09605776589920381
-0.07223288228864326
-0.0468015122777005
-0.020958321960123594
0.003991727519374069
0.02709578658612052
0.04769003109751818
0.06501552989677868
0.07838772672889514
0.08730218659225342
0.091459673497305
0.09078083449955722
0.08540868642877755
0.07569974926944836
0.062204551985895785
0.04563880941256952
0.026847646993497943
0.0067652556901966485
-0.013628295820658753
-0.03335002959361877
-0.05145572032784492
-0.06707876153292691
-0.07946502176552789
-0.08800267630616011
-0.09224726689421807
-0.09193959131153973
-0.0870170465269606
-0.07761684720256166
-0.06407031807809717
-0.04688818526823281
-0.026736507940195806
-0.004340140992802776
0.019665133285915105
0.04437590315363868
0.06857905403729826
0.09118355268929076
0.11133081595890942
0.1283878927465057
0.14190872664190346
0.15164089836750336
0.15757416684638478
0.15998840888931146
0.1593062130919709
-0.15874457949385168
-0.1611969651055942
-0.16055065253580625
-0.15642942163939164
-0.1485528664228565
-0.13691619837650437
-0.1217607476214181
-0.10351859358737044
-0.08277849522983546
-0.060309368207486655
-0.037085234413378375
-0.014224726205283025
0.007285054310253768
0.026675814245614327
0.043222153833290304
0.0563015395452084
0.06545572539771004
0.07041282500283891
0.07109876140240895
0.0676384808612064
0.06034690027794315
0.04971058232574446
0.03636192559315837
0.02104735607855598
0.0045919646897481636
-0.012137950850595328
-0.02827263819505388
-0.042975681177324934
-0.05547840045197501
-0.06511183342837287
-0.07133439748288017
-0.07375526947798737
-0.07215184504357036
-0.06648055711880323
-0.0568798699092478
-0.043664713587784974
-0.02731191723837577
-0.008436768567033497
0.012266289042028795
0.03407398902419921
0.05606644558959153
0.07721817869275041
0.09665920081075102
0.11372772694447589
0.1279359718494026
0.13893529959863185
0.14654552660191283
0.1508173542518023
0.15208220092361002
0.15072954509365735
-0.14729895358974188
-0.149900615795456
-0.14964211436830044
-0.1462597565520512
-0.13959503339553622
-0.12969661814441288
-0.11680499155102242
-0.10131841437409714
-0.0837616132383078
-0.06477800430125027
-0.04512561180983219
-0.02564107086590322
-0.007139097253058661
0.009669507431839612
0.024163175716900288
0.03583033712053374
0.04429820329147945
0.049348911896828614
0.050926880235028546
0.04913792552535056
0.04424056450019107
0.036630469967592755
0.026819587679968546
0.015411002280828442
0.0030713844652435277
-0.009498376212582945
-0.02159270713204716
-0.032531040023845784
-0.0416856989610291
-0.04850903944589867
-0.05255702163057107
-0.05350993134360669
-0.05118812074428343
-0.04556189271529493
-0.03675440298728508
-0.02503683789421714
-0.010815578793860423
0.005388396649178152
0.022971721791397386
0.041269381483388955
0.059538957144700325
0.07703817867030788
0.0931180766785257
0.10724999946879078
0.11901965220302457
0.12812323107241214
0.1343891405126522
0.1378092034234859
0.13855930354232285
0.13688653105484325
)
;

boundaryField
{
    "(inlet|outlet)"
    {
        type            zeroGradient;
    }
        "(front|back)"
        {
            type            empty;
        }
    "(top|hills)"
    {
     	type            zeroGradient;
    }
}

