/*--------------------------------*- C++ -*----------------------------------*\
| =========                 |                                                 |
| \\      /  F ield         | OpenFOAM: The Open Source CFD Toolbox           |
|  \\    /   O peration     | Version:  v1806                                 |
|   \\  /    A nd           | Web:      www.OpenFOAM.com                      |
|    \\/     M anipulation  |                                                 |
\*---------------------------------------------------------------------------*/
FoamFile
{
version     2.0;
format      ascii;
class       volScalarField;
location    "0";
object      nutCoeffs1;
}
// * * * * * * * * * * * * * * * * * * * * * * * * * * * * * * * * * * * * * //
dimensions      [0 0 0 0 0 0 0];

internalField   nonuniform List<scalar> 
1000
(
0.012087751174469271
0.010105650062169413
-0.0013492276673463036
-0.021839085372047724
-0.0456532379801431
-0.06853756339314503
-0.08811893394533908
-0.10293495379671608
-0.11268156671718856
-0.11902193848826949
-0.1250099538443299
-0.13356047678051722
-0.1444615317576899
-0.15545338302418668
-0.16580433569685063
-0.17533974031855631
-0.18391704557373656
-0.19142921780994676
-0.19780488137554986
-0.20300650909575318
-0.2070265097745485
-0.20988234300827846
-0.21161055766871756
-0.2122608598136281
-0.21188961418794167
-0.2105536422061507
-0.20830446020654197
-0.20518410545166937
-0.20122264736920084
-0.19643862333263026
-0.19084280586562685
-0.18444414051259736
-0.1772586509051492
-0.16931827318226594
-0.16067863076123032
-0.1514248162842048
-0.14167271110947424
-0.13156646143073192
-0.12181475605605878
-0.11462851446424706
-0.11001193687468529
-0.10477776102514809
-0.09587417924985331
-0.08212000357772124
-0.06450836438401145
-0.04494664253061415
-0.025662163623665652
-0.009785431727451747
-0.0010304011384892693
0.0008909409104787825
0.02215795521438685
0.022941832882881076
0.015287732446769831
-0.0021492157935767376
-0.025308047800275443
-0.05029264332222932
-0.0744757895519467
-0.09579146960297936
-0.11282584560164126
-0.12590527076010277
-0.13708696641233825
-0.14870338426865287
-0.16114633007091497
-0.17334076472528617
-0.1848437661798857
-0.19546991374583647
-0.205067132598536
-0.21352045984274712
-0.22075252544395133
-0.22672164555009044
-0.2314176448462222
-0.23485644401118114
-0.23707340168975155
-0.23811640928745892
-0.23803888962807276
-0.23689291361945122
-0.2347234141478426
-0.23156405957825088
-0.22743529070939164
-0.22234538188558875
-0.21629501619030453
-0.2092841061490122
-0.20132180985846682
-0.19243658845671519
-0.1826855558272304
-0.17216155565218172
-0.1609960852580087
-0.1493571215816148
-0.13769921778485347
-0.12710678550099244
-0.11700435880942787
-0.10494066792388614
-0.08916738165044646
-0.06995766993181274
-0.04913386454900907
-0.028700725809746135
-0.010654300722220988
0.002433160490363698
0.00813553033796621
0.007934677347586835
0.029780321280214413
0.0332688683962533
0.030189309466399958
0.0177080171669208
-0.002090150114209391
-0.026205083329141777
-0.05225911382355319
-0.0780021737176558
-0.10112571797610231
-0.12042284255301641
-0.13641233730897417
-0.15028130931402114
-0.16302005638138511
-0.1750999359668261
-0.18648220411792069
-0.1969999685511104
-0.20651819101789315
-0.21493602555414484
-0.22218658017633183
-0.22823436936974414
-0.23307130440724919
-0.23671124904350055
-0.2391837085520159
-0.24052739032219786
-0.24078359143498415
-0.23999004000236115
-0.23817590321010745
-0.2353584461556603
-0.23154208854533076
-0.22672017199112282
-0.22087997469935347
-0.21401004479094732
-0.2061102268134357
-0.19720200512519054
-0.18733800432108316
-0.17660991402656964
-0.16515203267379308
-0.1531397358941723
-0.14067151785617021
-0.1274071801111034
-0.11235362198477611
-0.09443403300074835
-0.07355600244930008
-0.051271029312027344
-0.029782722512898367
-0.010825629085560066
0.004085822495053273
0.013161606322197353
0.015372220254584136
0.013130470166784128
0.03390148666043956
0.03978455045324472
0.041582440861119806
0.03540566294530192
0.021338570718227198
0.0011787299031897635
-0.023344977830690197
-0.050263024923235325
-0.07681907034450583
-0.10040969773468332
-0.11973613882781874
-0.1344362498532182
-0.14596893957267212
-0.15643891788386
-0.16625530309720818
-0.17529748237824017
-0.18347367424961067
-0.19072030299598625
-0.19699955577227438
-0.20229568855960547
-0.20661038889196293
-0.20995787255031234
-0.21235943025840492
-0.21383866603820773
-0.21441651215443253
-0.21410733498416168
-0.2129159109254787
-0.21083614820307015
-0.207851597667088
-0.20393817551209623
-0.19906934883939714
-0.19322292388296658
-0.18638977601226842
-0.17858286910896212
-0.16984551017773317
-0.16025830004674255
-0.14994251135303296
-0.13905954640745888
-0.12732124947791654
-0.11295949887970261
-0.09478497382407118
-0.07338150389394671
-0.05027961191665666
-0.02792648945156279
-0.00849618226876643
0.00677987424673586
0.017003937859547322
0.021272272830789384
0.019895888975494196
0.015881109522318446
0.03371092570833353
0.04145353705870257
0.047920907478156326
0.048656422528787345
0.04196366675724341
0.028383523183380846
0.008807602131480604
-0.015423630838252867
-0.04165042359948193
-0.06635388974482188
-0.08655158073675191
-0.10023964920427703
-0.1090962579993795
-0.11659608363796128
-0.12354322401386032
-0.12987943406835487
-0.1355719799961665
-0.14060963930213302
-0.1449973932760518
-0.14875071981847368
-0.1518900189178457
-0.1544356052930948
-0.15640334952903753
-0.15780164687169063
-0.15862888805022612
-0.1588726701930866
-0.15850982048505008
-0.15750794444219332
-0.15582801750399092
-0.15342839676336884
-0.1502696882140286
-0.14632028713969605
-0.14156263542035089
-0.13599939355461854
-0.12965878127555078
-0.12259956581816427
-0.11491328787151855
-0.10672447356843812
-0.09740792229028046
-0.08406291669007641
-0.06551863430653342
-0.0438937759960892
-0.021986386497227672
-0.0026713215627724037
0.012222222720805434
0.022070029131280287
0.02661430842279976
0.025810055142065216
0.021107116258481953
0.015750957423735515
0.028754227895316026
0.03763589660206486
0.048073355230880056
0.05551995187513672
0.05687535224341934
0.051564554822465324
0.03966950353022111
0.02176902796542409
-3.2503089878044294e-05
-0.021987868114375524
-0.03999449834261725
-0.05071802293694961
-0.0557401337288126
-0.05931201559871495
-0.06248684063456558
-0.06526894260698025
-0.06768540765953886
-0.06977965760566154
-0.07160367273753752
-0.073210521770424
-0.07464725169508395
-0.07594916081714553
-0.07713567849994013
-0.07820812717074378
-0.0791494400981164
-0.07992589728004454
-0.08049041120712562
-0.08078691862878666
-0.08075562060249171
-0.08033806952618115
-0.0794819596357163
-0.07814515408783397
-0.0762989770479391
-0.07393078787634706
-0.07104612720100054
-0.06767044514069434
-0.0638504430550235
-0.05965449400743714
-0.0542362455728508
-0.04408157428532246
-0.028211461603385547
-0.00981750552201599
0.007596929799190239
0.0212019104167856
0.029717916592835736
0.033112162501534474
0.0316808695734235
0.026092273278104563
0.018641823173116107
0.012498515573768625
0.01900850924156918
0.028175152355144225
0.041461103783936616
0.05464904184726077
0.0636925000791547
0.06715037947760474
0.06446416957474935
0.055520804809514566
0.04161578687056031
0.026050848349981035
0.013221963924007145
0.007138440738924899
0.006608584115013908
0.007385886982145297
0.008367815488686788
0.009498667346032809
0.010702265584665291
0.011889054014433957
0.012964489175648344
0.013837732081145327
0.01442993448186267
0.014681436985579699
0.01455695768247339
0.014048179460957171
0.013173552538018123
0.011975232957125085
0.010513740036147216
0.00886102829828525
0.007093381113286456
0.005284892941483819
0.00350260906501236
0.0018036573023370495
0.00023445755941320986
-0.0011689078677805296
-0.0023796340097872004
-0.0033794858931385967
-0.00415884944995483
-0.004717708843420809
-0.00414024582807767
0.001082079305809395
0.011615435539020216
0.02384543221246057
0.03420718418546195
0.04032800796153459
0.04156114890111957
0.038344062496913335
0.03135715405812883
0.021766528597918274
0.012393613882871881
0.006089091163504929
0.004909031015656606
0.013439353320794364
0.02814081918619363
0.04545533006412674
0.060875852688366316
0.07238951418836415
0.07901821684303832
0.08014039476539254
0.07619786818281517
0.0695597547814517
0.0640905093109013
0.06368300859572933
0.06772870478962581
0.07273756397905025
0.07775300487683103
0.08268162930072945
0.08741245808455972
0.091822409044103
0.09578377945601164
0.09917255612927944
0.1018776457935703
0.10380935306331464
0.1049064373725235
0.10514042451303816
0.10451641220513247
0.10307040714444282
0.10086324411482482
0.09797284623936671
0.09448552750169861
0.09048875412029926
0.08606595190770971
0.08129418303816721
0.07624480443090405
0.07098590581356991
0.06558511377798605
0.06011204779012154
0.054638663371562056
0.04923760977638552
0.04474484817611454
0.04408652062454922
0.0475531607845834
0.05178076577111939
0.053736299065443374
0.0517913765130792
0.04589391496444153
0.03676381837104347
0.02526429040717351
0.012832828620530423
0.002519409701548174
-0.0033016794409576715
-0.012675953416096859
-0.005687500444800902
0.008833625608727774
0.028202915464470353
0.047923847750525536
0.0657178605592069
0.08040653952826322
0.09107100851237696
0.09739677197260602
0.10057965965193105
0.10334475040762686
0.10878322865826984
0.11693049529002017
0.12558764557393362
0.13408439676613607
0.14229953122775163
0.15009779602059004
0.15733304686404545
0.1638534308722486
0.16950880145421113
0.17415957346738098
0.17768651625613646
0.17999928228923298
0.18104295020495237
0.18080068686627798
0.17929237086587418
0.1765693844748616
0.17270676150841985
0.16779448568390054
0.16192973187367768
0.1552116752577836
0.1477392377456314
0.13961251077037715
0.13093575757357676
0.12182111323938938
0.11239140667441244
0.10278011389438109
0.0931286370400278
0.08407839121825317
0.07755955974944427
0.07348828198414951
0.06929762244836948
0.06291043836131502
0.053562613024636406
0.04166756120010241
0.028030343194460725
0.013519033400292252
-0.00035252483185041743
-0.010558904152976868
-0.015284379025501267
-0.03251967041077892
-0.027866527529774265
-0.015104026739385995
0.004036924637469834
0.02548037486286978
0.04697737897854173
0.0673498089291359
0.08558069467182546
0.10077720407258253
0.11294882041600263
0.12337985906263259
0.1339333770536604
0.14523007010847805
0.15658897436057598
0.16768898494937157
0.17838509664347096
0.18852169178611522
0.1979336281545292
0.2064495782715347
0.2138981951517823
0.22011671262304622
0.22496104184948224
0.22831549373391014
0.2301008941645246
0.23027888556497594
0.2288520016621922
0.22585956346904207
0.22137074954837319
0.21547600394814775
0.20827969697957022
0.1998949164998193
0.190441123213598
0.18004570821830765
0.16884698486587052
0.15699750514525931
0.14466679937962776
0.13204035597184555
0.11931559179693674
0.1068765761321326
0.09547428754737874
0.08470921676842898
0.07312840894072584
0.05979583200172587
0.04476913345472014
0.02875791849937122
0.01249703079583029
-0.0032618937462069388
-0.017076531679673313
-0.026151711462472745
-0.02925014446059824
-0.05315391939575161
-0.05142076836428141
-0.04178085465403572
-0.025068729386797065
-0.004640739027523551
0.017536156236342554
0.040454650359970104
0.06317566019067533
0.08445712846152609
0.10330058951720428
0.1195531559035988
0.13372319316787695
0.1468672155317952
0.15974117258530152
0.17235955400995046
0.18455357672170067
0.19614510393677898
0.2069474181319504
0.21676809034617037
0.22541500998612415
0.232704894590159
0.23847385529997678
0.24258746215590007
0.2449496574912702
0.24550780876428585
0.24425354081774983
0.241219406800184
0.23647246440432962
0.23010622482824838
0.22223326650199474
0.21298013137534022
0.20248463733301653
0.19089678848591823
0.17838139221068205
0.16512074327314447
0.15131615748874166
0.1371869780673065
0.12296519154205256
0.10877050422908745
0.09422937921470667
0.0787207423919916
0.061953351896788814
0.044077626600336546
0.025810367433512116
0.007996424225175174
-0.00878779989619183
-0.02396672679979338
-0.03627378295141698
-0.04330474240987011
-0.04437080144889441
-0.07301795911340511
-0.0745027658370783
-0.06895432051936741
-0.05647996830569827
-0.03956369127608784
-0.01972081360344059
0.002329430660516923
0.02586216895620624
0.049541494351439744
0.07169368574317583
0.09100207006350729
0.10677361558215606
0.1202910141014268
0.1334047044263083
0.14638660732421074
0.15904314624931667
0.1711692339336349
0.18255069542136992
0.192968763224978
0.20220734360027295
0.2100626066957184
0.2163537705205053
0.22093363962415888
0.22369711024727415
0.22458610915630245
0.22359034735307168
0.2207438309639999
0.21611851197525322
0.2098162258264782
0.20196103435998075
0.19269365292520416
0.18216788879254725
0.1705506738430079
0.15802343309553785
0.14478376190730669
0.13104663913986764
0.11704269360824307
0.10301338882698366
0.08885754615034705
0.07333281510035909
0.05570181793965519
0.03664104432267694
0.01714568700043338
-0.0016359361560403414
-0.01885031145230641
-0.034104383970582686
-0.04701172998154682
-0.05655161783465632
-0.06082458949809333
-0.0596189940824158
-0.09062172438130965
-0.09529687184749183
-0.09428728775486026
-0.08720497133370664
-0.07565719958991254
-0.060644671588603365
-0.04255749274327311
-0.021834811866148378
0.00032840649645178425
0.02200635427106847
0.04119610350764469
0.05638580321853046
0.06885233662891554
0.08101544464397345
0.09328175647282073
0.10543346003844957
0.11723649154777711
0.1284459249135269
0.13881355236328133
0.14809770667356673
0.15607431649557355
0.16254848159287166
0.1673645496145455
0.1704140576926243
0.1716395769429661
0.17103459761696058
0.16863945397908794
0.16453453524808578
0.1588319013229096
0.15166718456261824
0.14319321340538022
0.13357547603500208
0.12299061448010636
0.11162644957579827
0.09968274234523052
0.08737151011082323
0.07491579334968784
0.0625454096009192
0.050020767802115805
0.035617314710031975
0.01858759742016095
0.00022355707889359295
-0.017984067831448524
-0.034702998669651375
-0.04916187507432526
-0.06113614719054956
-0.07041474223724034
-0.07626362076453373
-0.07734669482781495
-0.07382607377636353
-0.10470156409523027
-0.11222473559687406
-0.1156402578481541
-0.11430014394384498
-0.10904645534407768
-0.10040069042061757
-0.08845896767882944
-0.0733803249119565
-0.05605682227880254
-0.03825598475556755
-0.022106974886901193
-0.009430413365966657
0.0008403237525909198
0.011113358927418618
0.02179332996690261
0.03264307602553169
0.04340344455530498
0.05380254585707894
0.06356674179221024
0.07243318723332383
0.0801623884519461
0.0865500225974573
0.09143639504430257
0.09471300957573714
0.09632512784003824
0.09627025040845416
0.09459350043057488
0.09138027722773123
0.08674778071868273
0.08083687419895509
0.07380493256309738
0.0658206663343761
0.05706136118329301
0.04771152526228406
0.037962692184772204
0.028013377440901887
0.018067814716804912
0.008333256886605864
-0.0014681403570357904
-0.013118483544424044
-0.02727038762224675
-0.04241560069651072
-0.05694042083745627
-0.06956362300439659
-0.07966155223724282
-0.08714652521401693
-0.09195653363805785
-0.09365363230115281
-0.09145993764371596
-0.08578852441219968
-0.11434484490741394
-0.12411848070450475
-0.13134001529481143
-0.1352934577376779
-0.1362318446616076
-0.13429705591976246
-0.12937445472235748
-0.12140706522799437
-0.11092296713090635
-0.09924083166641515
-0.0881362018442092
-0.07925589297107308
-0.07187089833568798
-0.06406104841481786
-0.05553442535492965
-0.04653804111739565
-0.037345288113889805
-0.028243576504048813
-0.019520335222244892
-0.011448819356790619
-0.00427457908562472
0.0017958873638796407
0.006603553709798763
0.010041941176134942
0.012058029573757479
0.012649912118030333
0.011861477010970954
0.00977524253729082
0.006504216936172234
0.0021839615197642545
-0.003034154913710536
-0.008988662129856995
-0.01551125866499853
-0.022429075820367645
-0.029565503892609413
-0.03674064020404658
-0.043772262469221154
-0.0504777790444917
-0.05708305264489179
-0.06506586732691823
-0.07489324026177784
-0.08518406699414575
-0.09452249002340442
-0.10186844871936077
-0.10678835451539899
-0.10929669148252982
-0.10944683924809197
-0.10707137683553826
-0.1018819633431076
-0.09441878857882809
-0.11906861692297885
-0.13033199072516055
-0.14036953456945164
-0.14852242242044283
-0.15464820166244322
-0.15863145765929748
-0.16023970927112657
-0.15928631208216124
-0.15596578702749886
-0.15103582915577835
-0.14565220538650922
-0.14097867345955517
-0.13664807868950443
-0.1314716017396011
-0.12532295860647952
-0.1184454291128041
-0.11111104031139925
-0.10360621856016326
-0.09621662851004494
-0.08921205649792485
-0.0828333943443921
-0.07728185233584255
-0.07271187821762577
-0.06922748849775462
-0.06688220695094844
-0.06568199495238675
-0.06559044150246673
-0.06653546656062356
-0.06841648087001971
-0.07111159860204372
-0.0744838884905441
-0.0783866158018903
-0.08266698739743045
-0.08716857599577621
-0.09173273550003681
-0.09619924102789035
-0.10040714687504253
-0.10419631174402676
-0.10768515648892707
-0.11183293473256194
-0.11687222510715255
-0.12177041473836346
-0.12551547095869953
-0.12741948772762776
-0.12724944487206474
-0.12508756401150417
-0.12106432224365213
-0.11522620273218244
-0.1076562035003395
-0.09891510703282998
-0.11884627679913086
-0.13078147756174782
-0.1424515877566688
-0.1533155125013435
-0.16301487578143933
-0.17129225008853555
-0.17787312108054418
-0.18251712943468074
-0.1851738391759588
-0.18609866430994357
-0.18581172087476117
-0.18491922802528357
-0.18334746091457138
-0.1806154392693852
-0.1767501520197782
-0.1719758273061724
-0.1665457897071582
-0.16072814258936113
-0.15479086417096008
-0.14898763088634892
-0.14354551179450126
-0.138655433337812
-0.13446588284210956
-0.1310797767296759
-0.12855456627488157
-0.12690459858423953
-0.12610558652434167
-0.12610005315186038
-0.1268035843392103
-0.12811087040666774
-0.12990154020424208
-0.13204510321359983
-0.13440495723782314
-0.1368411208969894
-0.13921201924490378
-0.14137562903971665
-0.14319032192974981
-0.14451629038349917
-0.14535615055246767
-0.14612383010066562
-0.14683508768849773
-0.14687847379341434
-0.1457023784663279
-0.14297823617714117
-0.138647012864805
-0.13282731884501733
-0.12568878561736535
-0.11741624763255513
-0.10831995664463297
-0.09890628566806424
-0.11408679390539632
-0.12591883287469519
-0.13802791954947674
-0.15000332230394764
-0.16142090583062094
-0.17197576406450416
-0.18140066399490015
-0.18945407150787838
-0.19595122599907186
-0.20081538657273176
-0.20410406243052015
-0.20598577033753054
-0.20655521599258525
-0.20581822091565966
-0.203895423894764
-0.20097775448839772
-0.1972842182399019
-0.19304927530876498
-0.18851005068387114
-0.18389402361432478
-0.17940844647670953
-0.17523165612509983
-0.17150712449354613
-0.16833980323403241
-0.16579512253916384
-0.16389973875310085
-0.1626442503256427
-0.1619870951147148
-0.161859383640765
-0.16217036206068516
-0.16281281094141783
-0.1636684367281366
-0.1646123869044469
-0.16551691903956678
-0.16625396769269438
-0.16669684794602518
-0.1667214944258527
-0.16620785454078232
-0.1650759374076779
-0.1633350098780821
-0.16086387006141345
-0.1574101934278412
-0.15279746892709076
-0.14697052820713177
-0.139987498275222
-0.13197853224528894
-0.12312144587306992
-0.1136612861257288
-0.10399238645323505
-0.0945264425285329
-0.1055722709394933
-0.11665003724081141
-0.12815322196985188
-0.13978735728435673
-0.15117713794282006
-0.16203979581546293
-0.17214227324671172
-0.18127193706327283
-0.1892144101277957
-0.19576534150339733
-0.2007736141096636
-0.20418329167156143
-0.2061228517735621
-0.20678807053370862
-0.20631734156805492
-0.2048586382818679
-0.20258559596137105
-0.19968828969848343
-0.19636373244638705
-0.19280642749166246
-0.18919976566211694
-0.18570844633579886
-0.1824721078587134
-0.17960038929889152
-0.1771696944032859
-0.17522143291382442
-0.17376221152043436
-0.1727655391362397
-0.1721753013678087
-0.17191069755627528
-0.17187192613375502
-0.1719464726939287
-0.17201498083969996
-0.17195642517068804
-0.17165198669848244
-0.17098771896937373
-0.16985624991239967
-0.16815809051059816
-0.16578679709322547
-0.16257779683732018
-0.15838340639467907
-0.15316436237440983
-0.14694882998477252
-0.1398174360500595
-0.1318773500349395
-0.12325401496258774
-0.11411278571261585
-0.10469209581231156
-0.09534990566974033
-0.08639125285937134
-0.09435626367568001
-0.10420629891544937
-0.11432208386788836
-0.12450307203634478
-0.13449887940407193
-0.14409454255408538
-0.15310283726512858
-0.161354851177927
-0.16868600423520913
-0.17493809207959748
-0.17998125985878677
-0.18374119239228776
-0.18627705399858105
-0.18771693507864656
-0.18815468161453375
-0.18769255969491772
-0.18645495326073125
-0.18458314399512146
-0.1822294879064054
-0.17955166013282664
-0.1767061367092938
-0.17384176552868016
-0.1710930105213878
-0.16857341826120284
-0.16636974237801985
-0.1645373183976277
-0.16309723951434527
-0.16203569125348266
-0.16130605886078686
-0.16083317689797366
-0.16051982484315228
-0.16025422524904762
-0.15991785467019892
-0.1593925330751237
-0.1585660492044311
-0.15733599208073656
-0.15561190882586437
-0.15331635438122293
-0.15037076393860077
-0.14665875416746527
-0.1421037611372597
-0.13672317838552528
-0.13057406492979173
-0.1237395808914277
-0.1163163767775287
-0.10841612152551762
-0.10018044566946593
-0.09179355830164611
-0.08349184844599153
-0.07547804255723572
)
;

boundaryField
{
    "(inlet|outlet)"
    {
        type            zeroGradient;
    }
        "(front|back)"
        {
            type            empty;
        }
    "(top|hills)"
    {
     	type            zeroGradient;
    }
}

