/*--------------------------------*- C++ -*----------------------------------*\
| =========                 |                                                 |
| \\      /  F ield         | OpenFOAM: The Open Source CFD Toolbox           |
|  \\    /   O peration     | Version:  v1806                                 |
|   \\  /    A nd           | Web:      www.OpenFOAM.com                      |
|    \\/     M anipulation  |                                                 |
\*---------------------------------------------------------------------------*/
FoamFile
{
    version     2.0;
    format      ascii;
    class       volScalarField;
    location    "5";
    object      p;
}
// * * * * * * * * * * * * * * * * * * * * * * * * * * * * * * * * * * * * * //

dimensions      [0 2 -2 0 0 0 0];


internalField   nonuniform List<scalar> 
8000
(
-0.188164
-0.118364
-0.156154
-0.114505
-0.0739458
-0.0371165
-0.0129882
0.000429136
0.0104419
0.0169047
0.0223251
0.0264906
0.0299891
0.0330978
0.0360293
0.0387703
0.0414931
0.0440955
0.0464382
0.0486862
0.050776
0.0527001
0.0543003
0.0555122
0.0600528
0.0649639
0.0705383
0.0762563
0.0821354
0.087986
0.0937762
0.099418
0.104883
0.110128
0.115134
0.119884
0.124376
0.12861
0.132598
0.13634
0.139835
0.143102
0.146166
0.149049
0.151767
0.154334
0.156761
0.159059
0.161237
0.163304
0.165269
0.16714
0.168925
0.170632
0.172266
0.173836
0.175347
0.176806
0.17822
0.179594
0.180936
0.182252
0.183547
0.184833
0.18611
0.187397
0.188684
0.190013
0.191339
0.192768
0.19416
0.195785
0.197251
0.19927
0.200763
0.203654
0.205059
0.21146
0.215843
0.220114
0.223612
0.22656
0.22884
0.229638
0.228591
0.225505
0.220219
0.212552
0.204446
0.194376
0.181858
0.164792
0.138592
0.0902276
0.0201476
-0.0952998
-0.238374
-0.359391
-0.307632
-0.303133
-0.188195
-0.118347
-0.155995
-0.115094
-0.0748851
-0.0380427
-0.0136171
1.66186e-05
0.0101446
0.0166888
0.0221502
0.02635
0.0298677
0.0329861
0.035924
0.0386697
0.0413976
0.0440118
0.0463693
0.0486321
0.0507385
0.0526809
0.0543033
0.0555428
0.0600847
0.0649854
0.0705499
0.0762555
0.0821209
0.0879564
0.0937306
0.0993556
0.104804
0.110033
0.115025
0.11976
0.124238
0.128459
0.132439
0.136183
0.139692
0.142974
0.146053
0.148949
0.151678
0.154255
0.15669
0.158996
0.161181
0.163254
0.165225
0.167102
0.168892
0.170603
0.172241
0.173814
0.175328
0.17679
0.178206
0.179582
0.180925
0.182243
0.18354
0.184827
0.186105
0.187393
0.18868
0.19001
0.191337
0.192766
0.194158
0.195783
0.197249
0.19927
0.200762
0.20366
0.205068
0.211473
0.215866
0.220151
0.223652
0.226595
0.228848
0.229594
0.228479
0.225318
0.219953
0.212242
0.204094
0.193941
0.181291
0.163969
0.137234
0.0882135
0.0173257
-0.0985137
-0.240405
-0.359037
-0.307218
-0.30305
-0.188198
-0.118218
-0.15573
-0.115606
-0.0758012
-0.038975
-0.0142614
-0.00040644
0.00984207
0.016471
0.0219762
0.0262115
0.0297499
0.0328784
0.0358225
0.0385726
0.0413037
0.043926
0.0462935
0.0485642
0.0506785
0.052632
0.0542799
0.0555655
0.0600927
0.064963
0.0705036
0.0761832
0.0820235
0.0878332
0.0935823
0.0991828
0.104609
0.109819
0.114794
0.119518
0.123988
0.128207
0.132189
0.13594
0.139458
0.142753
0.145846
0.148756
0.1515
0.15409
0.156538
0.158856
0.161052
0.163136
0.165117
0.167003
0.168802
0.170521
0.172167
0.173747
0.175268
0.176736
0.178157
0.179539
0.180886
0.182209
0.18351
0.184801
0.186082
0.187373
0.188664
0.189997
0.191327
0.19276
0.194155
0.195785
0.197256
0.199285
0.200786
0.203709
0.205148
0.211511
0.215852
0.220115
0.223596
0.226521
0.228738
0.229436
0.228269
0.225051
0.219629
0.21189
0.203703
0.193468
0.180678
0.163088
0.135823
0.0861975
0.0146632
-0.101134
-0.241176
-0.357389
-0.306413
-0.302928
-0.188144
-0.117884
-0.155238
-0.116062
-0.0767386
-0.0399164
-0.0149252
-0.000843728
0.00952997
0.0162479
0.0217998
0.0260729
0.0296343
0.0327724
0.0357195
0.0384686
0.0411951
0.0438154
0.0461835
0.0484531
0.0505696
0.0525351
0.0542278
0.0555902
0.0600798
0.0648956
0.0703967
0.0760369
0.0818433
0.0876222
0.0933452
0.0989242
0.104334
0.109534
0.114505
0.11923
0.123707
0.127939
0.131936
0.135694
0.139213
0.14251
0.145608
0.148526
0.151278
0.153878
0.156336
0.158663
0.16087
0.162964
0.164955
0.166852
0.168661
0.170389
0.172045
0.173633
0.175162
0.176638
0.178068
0.179457
0.180812
0.182142
0.183449
0.184747
0.186035
0.187333
0.18863
0.18997
0.191307
0.192748
0.194151
0.195793
0.197274
0.199323
0.200843
0.203818
0.205314
0.211581
0.215804
0.220005
0.223432
0.226305
0.228456
0.229087
0.227864
0.224596
0.219137
0.211392
0.203174
0.192857
0.179921
0.162049
0.134272
0.0841314
0.0121737
-0.103046
-0.24033
-0.353819
-0.304812
-0.302651
-0.187979
-0.117222
-0.154313
-0.116352
-0.0777451
-0.0408568
-0.0156182
-0.00131221
0.00919452
0.0160105
0.021616
0.0259323
0.0295222
0.0326703
0.0356166
0.0383578
0.0410694
0.0436775
0.0460397
0.0483041
0.0504222
0.0524052
0.0541601
0.0556198
0.0600511
0.0647978
0.0702515
0.0758495
0.0816234
0.087376
0.0930798
0.0986459
0.104049
0.109248
0.114223
0.118956
0.123445
0.127692
0.131703
0.135466
0.138984
0.142279
0.145378
0.148299
0.151056
0.153661
0.156126
0.15846
0.160673
0.162774
0.164774
0.166678
0.168495
0.170232
0.171896
0.173493
0.175031
0.176515
0.177952
0.17935
0.180713
0.182051
0.183366
0.184672
0.185969
0.187276
0.188582
0.189931
0.191278
0.192731
0.194147
0.195804
0.197302
0.199379
0.200929
0.203968
0.205532
0.211665
0.215739
0.219848
0.223191
0.225979
0.228022
0.228546
0.227236
0.223898
0.218397
0.210654
0.2024
0.191984
0.178873
0.160667
0.132334
0.0816982
0.00944109
-0.104779
-0.23834
-0.348361
-0.302009
-0.30198
-0.187611
-0.116133
-0.152787
-0.116214
-0.0786843
-0.0416422
-0.0162822
-0.00179557
0.00884116
0.0157612
0.021426
0.0257911
0.0294157
0.0325759
0.0355192
0.0382466
0.0409347
0.0435216
0.0458726
0.0481284
0.050248
0.0522518
0.0540748
0.0556415
0.0600072
0.0646872
0.0700943
0.0756534
0.0813989
0.0871299
0.092819
0.098376
0.103776
0.108975
0.113955
0.118696
0.123197
0.127457
0.131477
0.135244
0.138759
0.142053
0.145153
0.148077
0.150838
0.153448
0.155917
0.158256
0.160475
0.162583
0.164589
0.1665
0.168324
0.170069
0.171739
0.173344
0.174889
0.176381
0.177826
0.179231
0.180602
0.181948
0.183272
0.184587
0.185892
0.187208
0.188524
0.189885
0.191243
0.192709
0.19414
0.195817
0.197335
0.199444
0.201028
0.204132
0.205761
0.211744
0.215665
0.219669
0.222909
0.225588
0.227491
0.227869
0.226432
0.222986
0.217413
0.209652
0.201337
0.190785
0.177442
0.158812
0.129821
0.078623
0.00607304
-0.106882
-0.235883
-0.341549
-0.297925
-0.300709
-0.186977
-0.114571
-0.150589
-0.115376
-0.0792825
-0.0421441
-0.0168587
-0.0022706
0.00847895
0.015503
0.0212298
0.0256475
0.0293113
0.0324863
0.0354257
0.0381353
0.0407929
0.0433518
0.0456871
0.0479322
0.0500538
0.0520794
0.0539691
0.0556494
0.0599517
0.0645741
0.069937
0.0754603
0.0811791
0.0868901
0.0925654
0.0981138
0.10351
0.10871
0.113694
0.118442
0.122952
0.127222
0.131251
0.13502
0.138533
0.141827
0.144928
0.147854
0.150618
0.153232
0.155706
0.158051
0.160276
0.162389
0.164401
0.166319
0.16815
0.169901
0.171579
0.173191
0.174743
0.176242
0.177694
0.179107
0.180486
0.18184
0.183172
0.184495
0.185809
0.187135
0.188461
0.189833
0.191204
0.192684
0.19413
0.195827
0.197367
0.199509
0.201127
0.20429
0.205977
0.211807
0.215582
0.219474
0.222602
0.225158
0.226905
0.227114
0.225519
0.221931
0.216252
0.208439
0.20002
0.189276
0.175625
0.156459
0.126678
0.0748065
0.001937
-0.109529
-0.233324
-0.333938
-0.292748
-0.298775
-0.186044
-0.112559
-0.147753
-0.113733
-0.079329
-0.0423955
-0.0173135
-0.00272016
0.00811431
0.0152373
0.0210255
0.0254976
0.029203
0.0323943
0.0353297
0.0380192
0.0406422
0.0431684
0.0454854
0.0477182
0.0498421
0.0518894
0.0538434
0.0556442
0.0598864
0.0644608
0.069781
0.0752705
0.0809631
0.0866544
0.0923159
0.0978558
0.103248
0.108448
0.113435
0.118189
0.122708
0.126988
0.131023
0.134793
0.138304
0.141597
0.144698
0.147627
0.150394
0.153013
0.155492
0.157842
0.160072
0.162191
0.16421
0.166134
0.167972
0.169729
0.171414
0.173033
0.174592
0.176098
0.177558
0.178978
0.180365
0.181727
0.183067
0.184399
0.185722
0.187058
0.188395
0.189778
0.191161
0.192656
0.194117
0.195835
0.197397
0.19957
0.201224
0.204436
0.206175
0.211851
0.215486
0.219262
0.222271
0.224696
0.226274
0.226302
0.224532
0.220783
0.214976
0.207081
0.198516
0.187528
0.173495
0.153696
0.123019
0.0704112
-0.00271938
-0.112405
-0.230567
-0.32585
-0.286763
-0.296197
-0.184813
-0.110156
-0.14439
-0.111351
-0.0787924
-0.0424721
-0.0176292
-0.00312843
0.00775351
0.014966
0.0208128
0.0253396
0.0290865
0.0322946
0.0352259
0.0378942
0.0404804
0.0429713
0.0452678
0.0474872
0.0496133
0.0516825
0.0536987
0.055627
0.0598118
0.064347
0.0696257
0.0750831
0.0807499
0.086422
0.0920698
0.097601
0.102989
0.108188
0.113178
0.117938
0.122465
0.126753
0.130793
0.134563
0.138072
0.141363
0.144466
0.147396
0.150167
0.152789
0.155273
0.157627
0.159863
0.161988
0.164013
0.165943
0.167788
0.169552
0.171244
0.17287
0.174436
0.17595
0.177417
0.178845
0.18024
0.181609
0.182958
0.184299
0.185631
0.186977
0.188324
0.189719
0.191114
0.192623
0.194102
0.195838
0.197424
0.199626
0.201316
0.204568
0.206353
0.211873
0.215376
0.21903
0.221913
0.224196
0.225596
0.225432
0.223477
0.219556
0.213606
0.205609
0.196866
0.185594
0.171122
0.150622
0.118997
0.0656635
-0.00758575
-0.115167
-0.22744
-0.317405
-0.280283
-0.29307
-0.183311
-0.107427
-0.140659
-0.108352
-0.0777207
-0.0423853
-0.0178091
-0.00347603
0.00740551
0.0146933
0.0205929
0.0251736
0.0289611
0.0321853
0.0351121
0.0377585
0.0403067
0.0427601
0.0450343
0.047239
0.0493673
0.0514589
0.0535358
0.0555987
0.0597279
0.0642327
0.0694711
0.0748984
0.0805399
0.0861932
0.0918274
0.0973501
0.102734
0.107932
0.112924
0.117689
0.122223
0.126517
0.13056
0.134329
0.137837
0.141127
0.14423
0.147162
0.149935
0.152561
0.155049
0.157409
0.159649
0.16178
0.163811
0.165748
0.167599
0.16937
0.171069
0.172701
0.174275
0.175796
0.177271
0.178706
0.180109
0.181487
0.182844
0.184194
0.185536
0.186891
0.188249
0.189655
0.191064
0.192587
0.194082
0.195838
0.197447
0.199676
0.201401
0.204684
0.20651
0.211872
0.215247
0.218774
0.221524
0.223654
0.224866
0.2245
0.222349
0.218244
0.21214
0.204022
0.195073
0.183483
0.168527
0.147278
0.114681
0.0606752
-0.0125227
-0.11769
-0.223894
-0.308628
-0.273525
-0.289538
-0.181564
-0.104422
-0.136707
-0.104889
-0.0761499
-0.0421139
-0.0178658
-0.00373947
0.00708295
0.0144253
0.0203693
0.0250013
0.0288275
0.0320666
0.0349881
0.0376118
0.0401209
0.0425347
0.044785
0.0469737
0.0491041
0.0512188
0.0533557
0.0555594
0.0596348
0.0641182
0.0693176
0.0747171
0.0803339
0.085969
0.0915896
0.0971036
0.102482
0.107679
0.112673
0.117442
0.121981
0.12628
0.130325
0.134093
0.137598
0.140888
0.143991
0.146924
0.1497
0.152329
0.154821
0.157186
0.159431
0.161568
0.163604
0.165547
0.167405
0.169183
0.170888
0.172528
0.174109
0.175637
0.177119
0.178563
0.179973
0.181359
0.182726
0.184084
0.185435
0.186801
0.18817
0.189587
0.191009
0.192547
0.194059
0.195833
0.197466
0.199719
0.201479
0.204782
0.206643
0.211844
0.215097
0.218491
0.221099
0.223066
0.224079
0.2235
0.221141
0.216842
0.210571
0.202313
0.19313
0.181187
0.165702
0.143664
0.110085
0.0554738
-0.0174929
-0.119944
-0.219941
-0.299533
-0.266554
-0.285692
-0.179576
-0.101172
-0.132615
-0.101145
-0.0741301
-0.0416418
-0.017797
-0.00389785
0.00680234
0.0141708
0.0201464
0.0248258
0.0286877
0.0319397
0.0348545
0.0374545
0.0399232
0.0422955
0.04452
0.0466913
0.0488237
0.0509628
0.053159
0.0555094
0.0595326
0.0640038
0.0691657
0.0745401
0.0801328
0.0857504
0.0913575
0.0968626
0.102236
0.107431
0.112425
0.117197
0.12174
0.126042
0.130087
0.133853
0.137357
0.140646
0.143749
0.146684
0.149462
0.152094
0.15459
0.156959
0.159209
0.161351
0.163393
0.165342
0.167206
0.16899
0.170703
0.172349
0.173937
0.175473
0.176963
0.178414
0.179833
0.181227
0.182602
0.183969
0.18533
0.186706
0.188085
0.189515
0.19095
0.192501
0.19403
0.195821
0.197479
0.199753
0.201547
0.20486
0.206748
0.211787
0.214922
0.218176
0.220634
0.222426
0.223228
0.222426
0.219847
0.215342
0.20889
0.200472
0.191024
0.178693
0.162632
0.139766
0.105202
0.0500705
-0.0224696
-0.121899
-0.215585
-0.290148
-0.259382
-0.281543
-0.177333
-0.0976931
-0.128406
-0.0972942
-0.0717443
-0.040958
-0.0175885
-0.00393985
0.00658421
0.0139412
0.0199307
0.024651
0.0285446
0.0318066
0.0347128
0.0372874
0.0397143
0.042043
0.0442399
0.0463923
0.0485265
0.0506915
0.0529469
0.0554489
0.0594217
0.0638902
0.0690164
0.0743685
0.0799378
0.0855386
0.0911322
0.0966283
0.101996
0.107188
0.112182
0.116956
0.1215
0.125803
0.129848
0.133612
0.137115
0.140403
0.143506
0.146442
0.149222
0.151857
0.154356
0.156729
0.158984
0.161131
0.163178
0.165133
0.167003
0.168794
0.170512
0.172166
0.173761
0.175304
0.176801
0.17826
0.179687
0.18109
0.182473
0.183849
0.18522
0.186605
0.187996
0.189437
0.190885
0.19245
0.193996
0.195803
0.197484
0.199775
0.201603
0.204914
0.206824
0.211697
0.214716
0.217824
0.220124
0.221729
0.222308
0.221271
0.21846
0.213739
0.207091
0.19849
0.188743
0.175986
0.159304
0.135575
0.100034
0.044485
-0.0274123
-0.123509
-0.21083
-0.280504
-0.252015
-0.277067
-0.174812
-0.0939921
-0.124074
-0.0934625
-0.0691023
-0.0400568
-0.0172319
-0.00385493
0.00645233
0.0137519
0.0197311
0.0244824
0.0284021
0.0316702
0.0345653
0.0371124
0.0394957
0.0417785
0.0439456
0.0460777
0.0482135
0.0504059
0.0527209
0.0553785
0.0593028
0.0637782
0.0688707
0.0742036
0.0797505
0.0853352
0.0909153
0.0964021
0.101763
0.106951
0.111944
0.116717
0.121263
0.125565
0.129607
0.133369
0.136871
0.140159
0.143262
0.146198
0.14898
0.151618
0.15412
0.156497
0.158756
0.160908
0.16296
0.164921
0.166796
0.168593
0.170318
0.171979
0.173581
0.175131
0.176635
0.178102
0.179536
0.180947
0.182339
0.183725
0.185104
0.1865
0.187901
0.189353
0.190815
0.192392
0.193955
0.195776
0.197481
0.199784
0.201643
0.20494
0.206864
0.211569
0.214476
0.217428
0.219562
0.220969
0.221313
0.220029
0.216975
0.212024
0.205165
0.196354
0.186274
0.173051
0.155701
0.131081
0.0945878
0.0387471
-0.0322701
-0.124725
-0.205678
-0.270633
-0.244464
-0.272239
-0.171993
-0.0900744
-0.119602
-0.0897119
-0.066324
-0.038946
-0.0167341
-0.00362173
0.0064272
0.0136221
0.0195589
0.0243274
0.0282657
0.0315348
0.0344153
0.0369321
0.0392695
0.0415039
0.0436389
0.045749
0.0478862
0.0501079
0.0524828
0.055299
0.0591773
0.0636688
0.06873
0.074047
0.0795725
0.0851419
0.0907085
0.0961855
0.101539
0.106722
0.111712
0.116484
0.121028
0.125328
0.129367
0.133126
0.136627
0.139915
0.143018
0.145955
0.148739
0.151378
0.153883
0.156263
0.158526
0.160683
0.16274
0.164706
0.166586
0.168389
0.170121
0.171788
0.173396
0.174953
0.176465
0.177939
0.179382
0.1808
0.182201
0.183595
0.184984
0.186389
0.187801
0.189264
0.190738
0.192327
0.193907
0.19574
0.197467
0.199777
0.201664
0.204936
0.206866
0.211399
0.214195
0.216984
0.218943
0.220138
0.220236
0.218693
0.215383
0.210189
0.203101
0.194055
0.183603
0.169874
0.151813
0.126281
0.088876
0.0328954
-0.036985
-0.125499
-0.200137
-0.26057
-0.236745
-0.267036
-0.168853
-0.0859446
-0.114976
-0.086054
-0.0635199
-0.0376531
-0.0161096
-0.00322343
0.00652891
0.0135748
0.0194294
0.0241956
0.0281421
0.0314058
0.0342674
0.0367504
0.0390389
0.041222
0.0433223
0.0454086
0.0475468
0.0497997
0.0522353
0.0552118
0.0590469
0.0635635
0.068596
0.0739006
0.0794058
0.0849608
0.0905137
0.0959804
0.101326
0.106503
0.111488
0.116257
0.120798
0.125093
0.129127
0.132884
0.136385
0.139673
0.142776
0.145714
0.148498
0.151139
0.153646
0.156029
0.158296
0.160457
0.162518
0.164489
0.166375
0.168184
0.169921
0.171594
0.173209
0.174773
0.176292
0.177773
0.179223
0.180649
0.182058
0.18346
0.184858
0.186272
0.187695
0.189167
0.190654
0.192253
0.193849
0.195691
0.19744
0.199751
0.201663
0.204896
0.206823
0.211182
0.213866
0.216484
0.218258
0.21923
0.219068
0.217256
0.213677
0.208226
0.200891
0.191579
0.180718
0.166442
0.147627
0.121175
0.0829204
0.0269775
-0.0414926
-0.125783
-0.19422
-0.250351
-0.228872
-0.261439
-0.165371
-0.0816068
-0.110181
-0.0824682
-0.0607745
-0.0362268
-0.015378
-0.0026611
0.00678568
0.0136328
0.0193613
0.0240994
0.0280405
0.0312903
0.0341278
0.0365727
0.0388087
0.0409371
0.0429996
0.04506
0.0471988
0.0494846
0.0519819
0.0551192
0.0589142
0.0634644
0.0684712
0.0737668
0.0792528
0.0847941
0.0903331
0.095789
0.101125
0.106294
0.111273
0.116037
0.120573
0.124862
0.128891
0.132644
0.136145
0.139433
0.142537
0.145474
0.148259
0.150902
0.153411
0.155797
0.158067
0.160231
0.162297
0.164272
0.166163
0.167976
0.169719
0.171398
0.173019
0.174589
0.176115
0.177603
0.17906
0.180494
0.18191
0.183321
0.184727
0.18615
0.187582
0.189064
0.190562
0.19217
0.193781
0.195629
0.197397
0.199702
0.201634
0.204816
0.206731
0.210911
0.213483
0.215919
0.2175
0.218235
0.217802
0.215708
0.211848
0.206127
0.198523
0.188914
0.177604
0.162741
0.143137
0.115769
0.0767515
0.0210499
-0.0457239
-0.125533
-0.187945
-0.240012
-0.220864
-0.255435
-0.161528
-0.0770651
-0.105208
-0.0789165
-0.0581348
-0.0347328
-0.0145645
-0.00195388
0.00722253
0.013821
0.0193771
0.0240545
0.027972
0.0311973
0.0340044
0.0364061
0.0385853
0.0406551
0.0426762
0.0447084
0.046847
0.0491672
0.0517273
0.0550243
0.0587828
0.0633742
0.0683584
0.0736484
0.0791165
0.0846446
0.0901694
0.0956135
0.100938
0.106099
0.111069
0.115826
0.120355
0.124637
0.128658
0.132409
0.135909
0.139197
0.142301
0.145239
0.148025
0.150668
0.153179
0.155567
0.15784
0.160007
0.162076
0.164055
0.16595
0.167769
0.169517
0.171201
0.172828
0.174404
0.175935
0.17743
0.178894
0.180335
0.181758
0.183176
0.184591
0.186021
0.187463
0.188952
0.190461
0.192076
0.1937
0.195551
0.197335
0.199626
0.201573
0.204692
0.206582
0.210582
0.213038
0.215282
0.21666
0.217144
0.216429
0.214042
0.209887
0.20388
0.195986
0.186046
0.174247
0.158759
0.138339
0.110079
0.0704095
0.0151785
-0.0496061
-0.124713
-0.181338
-0.22959
-0.212736
-0.249016
-0.157308
-0.0723235
-0.100046
-0.0753544
-0.0556074
-0.0332422
-0.0137009
-0.00113788
0.00784797
0.0141712
0.0195003
0.0240801
0.0279509
0.0311378
0.033907
0.0362598
0.0383772
0.0403838
0.0423594
0.0443605
0.0464977
0.0488535
0.0514775
0.0549317
0.0586575
0.0632967
0.0682616
0.0735488
0.0790001
0.0845155
0.0900256
0.095457
0.100769
0.105919
0.110879
0.115627
0.120146
0.124419
0.128432
0.132179
0.135679
0.138968
0.142072
0.14501
0.147795
0.150439
0.152951
0.155341
0.157616
0.159786
0.161858
0.16384
0.165739
0.167562
0.169314
0.171003
0.172635
0.174217
0.175754
0.177255
0.178724
0.180172
0.181602
0.183027
0.184449
0.185886
0.187335
0.188831
0.190349
0.191969
0.193604
0.195454
0.19725
0.19952
0.201475
0.204517
0.206372
0.210187
0.212521
0.214563
0.215727
0.215948
0.214938
0.212246
0.207783
0.201475
0.193267
0.182961
0.170635
0.154488
0.133236
0.104125
0.0639452
0.00943717
-0.0530654
-0.123295
-0.174429
-0.219122
-0.204507
-0.242179
-0.152699
-0.0673858
-0.0946921
-0.0717378
-0.0531625
-0.0318165
-0.0128274
-0.000262125
0.00864834
0.0147113
0.0197584
0.024198
0.0279943
0.0311253
0.0338474
0.0361453
0.0381953
0.0401338
0.0420592
0.0440256
0.0461599
0.0485519
0.0512407
0.0548479
0.0585448
0.0632369
0.0681858
0.0734727
0.0789081
0.0844108
0.0899054
0.0953227
0.100621
0.105757
0.110706
0.115441
0.119948
0.12421
0.128215
0.131957
0.135456
0.138745
0.141849
0.144787
0.147573
0.150217
0.152729
0.15512
0.157397
0.159568
0.161643
0.163628
0.16553
0.167357
0.169113
0.170806
0.172443
0.174029
0.175571
0.177077
0.178553
0.180006
0.181442
0.182872
0.1843
0.185744
0.1872
0.188701
0.190226
0.191848
0.19349
0.195335
0.197138
0.199378
0.201332
0.204285
0.206091
0.209718
0.211924
0.213753
0.214691
0.214636
0.21332
0.21031
0.205526
0.1989
0.190353
0.179645
0.166755
0.149922
0.127836
0.0979408
0.0574205
0.003907
-0.0560292
-0.121262
-0.167253
-0.208643
-0.196192
-0.234928
-0.147692
-0.0622562
-0.0891409
-0.0680278
-0.0507424
-0.0304924
-0.0119915
0.000617416
0.00958267
0.0154548
0.0201817
0.0244332
0.0281224
0.0311762
0.03384
0.0360765
0.0380534
0.0399185
0.0417884
0.0437162
0.0458452
0.0482731
0.0510272
0.0547818
0.0584532
0.0632017
0.0681376
0.0734257
0.0788459
0.0843354
0.0898133
0.0952147
0.100497
0.105618
0.110551
0.115272
0.119765
0.124014
0.128008
0.131745
0.135244
0.138532
0.141636
0.144573
0.147358
0.150002
0.152514
0.154905
0.157183
0.159356
0.161433
0.16342
0.165325
0.167154
0.168913
0.17061
0.17225
0.173841
0.175388
0.176898
0.178378
0.179836
0.181277
0.182712
0.184146
0.185593
0.187054
0.188558
0.190088
0.19171
0.193356
0.195189
0.196994
0.199196
0.201139
0.20399
0.205732
0.209168
0.211237
0.212839
0.213539
0.213195
0.211561
0.208222
0.203103
0.19614
0.187228
0.176083
0.162598
0.14506
0.122155
0.0915685
0.050908
-0.00132557
-0.0584293
-0.11861
-0.159851
-0.198185
-0.187807
-0.227275
-0.142285
-0.0569383
-0.0833908
-0.0641933
-0.0482742
-0.0292691
-0.0112406
0.00144372
0.010584
0.0163909
0.0207953
0.0248137
0.0283582
0.031309
0.0339014
0.0360697
0.0379679
0.0397546
0.0415637
0.0434481
0.0455688
0.0480314
0.0508504
0.0547449
0.0583935
0.0631999
0.0681256
0.0734152
0.0788203
0.0842953
0.0897548
0.095138
0.100401
0.105503
0.110418
0.115122
0.119599
0.123833
0.127816
0.131546
0.135042
0.13833
0.141433
0.144369
0.147153
0.149796
0.152308
0.154698
0.156976
0.15915
0.161228
0.163217
0.165123
0.166954
0.168716
0.170416
0.172059
0.173653
0.175204
0.176718
0.178201
0.179663
0.181108
0.182546
0.183983
0.185434
0.186898
0.188402
0.189934
0.191551
0.193197
0.195013
0.196812
0.198966
0.200887
0.203625
0.205288
0.208527
0.210447
0.21181
0.212259
0.211613
0.209649
0.205969
0.2005
0.193182
0.183879
0.172264
0.158157
0.139905
0.11622
0.0850632
0.0444911
-0.00617124
-0.0602047
-0.115348
-0.152265
-0.187781
-0.179367
-0.219238
-0.13648
-0.0514364
-0.0774412
-0.0602109
-0.045682
-0.0281048
-0.0106096
0.00216358
0.011568
0.0174752
0.0216111
0.025366
0.0287273
0.0315447
0.0340501
0.0361438
0.0379583
0.0396626
0.0414058
0.0432419
0.0453505
0.047845
0.0507276
0.0547528
0.0583798
0.0632433
0.0681607
0.0734506
0.0788397
0.0842981
0.0897365
0.0950984
0.100339
0.10542
0.110313
0.114997
0.119454
0.123671
0.12764
0.131363
0.134856
0.138141
0.141243
0.144177
0.146959
0.1496
0.152111
0.1545
0.156778
0.158952
0.16103
0.163019
0.164926
0.166759
0.168522
0.170224
0.17187
0.173466
0.175019
0.176535
0.178022
0.179485
0.180933
0.182373
0.183812
0.185263
0.186728
0.18823
0.18976
0.191369
0.193009
0.194802
0.196586
0.198681
0.200568
0.203181
0.204747
0.207784
0.209543
0.210653
0.210837
0.209876
0.20757
0.203536
0.197703
0.19001
0.180289
0.168174
0.153428
0.134472
0.110069
0.0784924
0.0382622
-0.010541
-0.0613061
-0.111503
-0.144539
-0.177457
-0.170886
-0.210844
-0.130286
-0.0457543
-0.0712928
-0.0560643
-0.0428992
-0.0269215
-0.0101052
0.00273329
0.0124473
0.0186278
0.0226144
0.0261086
0.0292555
0.0319069
0.0343068
0.0363188
0.0380471
0.0396664
0.0413399
0.0431226
0.0452146
0.0477366
0.0506804
0.0548251
0.0584293
0.0633467
0.0682564
0.0735436
0.0789146
0.0843528
0.0897666
0.0951032
0.100318
0.105372
0.11024
0.114899
0.119334
0.123531
0.127485
0.131198
0.134685
0.137968
0.141066
0.143998
0.146777
0.149416
0.151924
0.154312
0.156588
0.158761
0.160838
0.162827
0.164735
0.166567
0.168332
0.170034
0.171681
0.173278
0.174833
0.176351
0.177838
0.179303
0.180751
0.182192
0.183631
0.18508
0.186542
0.188039
0.189564
0.191159
0.192787
0.194548
0.196308
0.198335
0.200173
0.202648
0.2041
0.20693
0.208512
0.209356
0.209259
0.207968
0.205308
0.200908
0.194695
0.186609
0.176445
0.163807
0.148416
0.128781
0.103752
0.0719362
0.0323203
-0.0143501
-0.061698
-0.107114
-0.136715
-0.167238
-0.162375
-0.202126
-0.123719
-0.0398966
-0.0649473
-0.0517417
-0.0398754
-0.025619
-0.00969297
0.00312775
0.0131458
0.0197418
0.0237539
0.0270418
0.0299632
0.03242
0.0346941
0.0366159
0.0382572
0.0397926
0.0413959
0.043121
0.0451913
0.0477346
0.0507357
0.0549874
0.0585619
0.0635282
0.0684296
0.0737083
0.0790578
0.0844706
0.0898549
0.0951609
0.100344
0.105367
0.110205
0.114836
0.119244
0.123418
0.127354
0.131055
0.134534
0.137812
0.140906
0.143833
0.146609
0.149244
0.151749
0.154134
0.156408
0.158579
0.160654
0.162642
0.164548
0.16638
0.168144
0.169847
0.171493
0.173091
0.174645
0.176163
0.17765
0.179115
0.180562
0.182
0.183436
0.184881
0.186337
0.187825
0.189339
0.190914
0.192523
0.194246
0.195971
0.197918
0.199691
0.202017
0.203335
0.20595
0.207339
0.207901
0.207507
0.205874
0.202848
0.198068
0.191461
0.182962
0.172334
0.159157
0.143132
0.122868
0.0973317
0.0654858
0.026768
-0.0175222
-0.061363
-0.102232
-0.128833
-0.157145
-0.153845
-0.193124
-0.116801
-0.0338681
-0.0584087
-0.0472337
-0.0365793
-0.024094
-0.00929432
0.00335333
0.0136125
0.0207039
0.0249381
0.028135
0.0308574
0.0331044
0.0352349
0.037058
0.0386111
0.0400679
0.0416054
0.0432712
0.045316
0.0478717
0.0509252
0.0552727
0.0588011
0.0638095
0.0686999
0.0739618
0.0792842
0.0846645
0.0900128
0.0952816
0.100427
0.105413
0.110215
0.114812
0.11919
0.123337
0.127252
0.130937
0.134406
0.137675
0.140763
0.143685
0.146455
0.149085
0.151586
0.153967
0.156237
0.158405
0.160478
0.162463
0.164367
0.166197
0.16796
0.16966
0.171306
0.172902
0.174455
0.175971
0.177456
0.178918
0.180361
0.181795
0.183225
0.184662
0.186109
0.187582
0.18908
0.19063
0.192211
0.193886
0.195562
0.197419
0.19911
0.201274
0.20244
0.204831
0.206009
0.206274
0.205565
0.203576
0.200171
0.194998
0.187984
0.179055
0.167949
0.15423
0.137597
0.116777
0.0908864
0.0592421
0.0217067
-0.0199947
-0.0603028
-0.0969194
-0.120929
-0.147198
-0.145308
-0.183884
-0.109562
-0.027674
-0.051683
-0.0425313
-0.0329969
-0.0222581
-0.00879655
0.00345989
0.0138336
0.0214188
0.0260478
0.029317
0.0319197
0.0339708
0.0359487
0.0376671
0.039132
0.0405175
0.0419983
0.0436079
0.0456264
0.048186
0.0512853
0.0557144
0.0591751
0.0642156
0.06909
0.0743235
0.0796111
0.0849496
0.0902533
0.0954764
0.100576
0.105518
0.110278
0.114835
0.119176
0.123292
0.127181
0.130847
0.134301
0.13756
0.140639
0.143553
0.146316
0.14894
0.151435
0.153811
0.156076
0.158239
0.160308
0.162289
0.16419
0.166017
0.167776
0.169474
0.171117
0.17271
0.174259
0.175772
0.177253
0.178709
0.180147
0.181573
0.182994
0.184419
0.185851
0.187305
0.18878
0.190297
0.19184
0.193457
0.195073
0.196825
0.198418
0.200406
0.2014
0.203557
0.204504
0.204456
0.203415
0.201056
0.197259
0.191683
0.184247
0.174877
0.163285
0.149036
0.131845
0.110571
0.0845055
0.0533118
0.0172313
-0.0217224
-0.0585396
-0.0912468
-0.113035
-0.137412
-0.136773
-0.174454
-0.102039
-0.0213205
-0.0447796
-0.0376257
-0.0291263
-0.0200485
-0.00807459
0.00354356
0.0138435
0.0218327
0.0269615
0.0304782
0.0330934
0.0350084
0.0368456
0.0384615
0.0398408
0.0411642
0.0426018
0.0441633
0.0461589
0.0487161
0.0518541
0.0563453
0.0597141
0.064773
0.0696238
0.0748147
0.0800567
0.0853417
0.0905903
0.0957574
0.100802
0.10569
0.1104
0.11491
0.119209
0.123288
0.127147
0.130789
0.134225
0.137469
0.140535
0.143439
0.146193
0.148809
0.151296
0.153664
0.155923
0.15808
0.160143
0.16212
0.164016
0.165838
0.167593
0.169286
0.170924
0.172512
0.174056
0.175563
0.177037
0.178486
0.179914
0.18133
0.182737
0.184145
0.185558
0.186986
0.188429
0.189905
0.1914
0.192948
0.194487
0.196123
0.197597
0.199397
0.200199
0.20211
0.202806
0.202429
0.201038
0.198296
0.194095
0.188103
0.180238
0.17042
0.158348
0.143598
0.125921
0.104325
0.0782891
0.0478022
0.0134242
-0.0226817
-0.0561152
-0.0852862
-0.105175
-0.127802
-0.128249
-0.164886
-0.0942718
-0.014815
-0.0377111
-0.0325082
-0.0249724
-0.0174305
-0.007015
0.00373429
0.0137307
0.0219521
0.0275884
0.0314915
0.0342805
0.0361723
0.0379159
0.0394493
0.0407533
0.0420264
0.0434373
0.0449634
0.0469441
0.0494965
0.0526666
0.057196
0.0604466
0.0655072
0.0703248
0.0754556
0.0806391
0.0858567
0.0910372
0.0961361
0.101114
0.105939
0.110588
0.115044
0.119293
0.123329
0.127152
0.130764
0.134177
0.137402
0.140453
0.143343
0.146085
0.14869
0.151167
0.153527
0.155777
0.157927
0.159982
0.161952
0.163841
0.165657
0.167405
0.169092
0.170723
0.172304
0.173841
0.175339
0.176804
0.178241
0.179657
0.181057
0.182446
0.183832
0.185219
0.186614
0.188018
0.189443
0.190878
0.192344
0.193791
0.195295
0.196632
0.198228
0.198818
0.200469
0.200894
0.200171
0.198412
0.195274
0.19066
0.184245
0.175947
0.165683
0.153151
0.137951
0.119888
0.0981256
0.0723434
0.0428157
0.0103494
-0.0228729
-0.0530889
-0.0791093
-0.0973717
-0.118379
-0.119747
-0.155233
-0.086308
-0.00816629
-0.0304936
-0.0271722
-0.0205425
-0.0143929
-0.00553288
0.0041708
0.0136294
0.0218529
0.0278995
0.0322478
0.0353556
0.0373759
0.0391166
0.0406175
0.041874
0.0431148
0.0445175
0.0460244
0.0480017
0.0505514
0.053749
0.0582891
0.0613955
0.0664381
0.071212
0.0762635
0.0813729
0.0865073
0.091605
0.096622
0.10152
0.106271
0.11085
0.115241
0.119432
0.123418
0.127198
0.130775
0.134159
0.13736
0.140391
0.143264
0.145991
0.148582
0.151047
0.153395
0.155635
0.157775
0.159821
0.161782
0.163663
0.16547
0.16721
0.168888
0.17051
0.172081
0.173608
0.175094
0.176546
0.177968
0.179367
0.180747
0.182113
0.18347
0.184823
0.186176
0.187531
0.188894
0.190256
0.191627
0.192965
0.194322
0.195501
0.196878
0.197237
0.198612
0.198745
0.19766
0.195516
0.191972
0.186936
0.180095
0.171367
0.160674
0.14772
0.132145
0.113819
0.0920716
0.0667751
0.0384421
0.00804727
-0.0223208
-0.0495333
-0.0727831
-0.0896413
-0.109154
-0.11128
-0.145546
-0.078197
-0.00138556
-0.0231463
-0.0216144
-0.0158438
-0.0109406
-0.0035768
0.00497451
0.0136954
0.0216727
0.027947
0.0326971
0.036202
0.0385007
0.0403638
0.0419184
0.0431838
0.0444251
0.0458433
0.0473494
0.0493364
0.0518891
0.0551115
0.0596322
0.0625728
0.0675756
0.0722948
0.0772471
0.0822656
0.0873004
0.0922993
0.0972196
0.102025
0.106688
0.111186
0.115502
0.119627
0.123555
0.127284
0.13082
0.134168
0.13734
0.140346
0.143198
0.145906
0.14848
0.15093
0.153265
0.155492
0.15762
0.159655
0.161604
0.163474
0.165271
0.167
0.168667
0.170277
0.171836
0.173349
0.17482
0.176255
0.177658
0.179034
0.180388
0.181724
0.183045
0.184356
0.185658
0.186953
0.188242
0.189515
0.190777
0.191987
0.193181
0.194181
0.195321
0.19543
0.196513
0.196334
0.194871
0.192329
0.18837
0.182909
0.175645
0.166502
0.15541
0.142092
0.126241
0.107801
0.0862653
0.0616845
0.0347523
0.00653097
-0.0210729
-0.0455297
-0.0663681
-0.0819983
-0.100134
-0.102861
-0.135876
-0.0699901
0.00551344
-0.015691
-0.0158369