# Probe 0 (0.056 0.014 0.063)
# Probe 1 (0.084 0.014 0.063)
#       Probe             0             1
#        Time
       0.0002             (0.0609848 -0.0244978 -2.6551e-22)             (0.157967 -0.0504407 4.93278e-24)
