/*--------------------------------*- C++ -*----------------------------------*\
| =========                 |                                                 |
| \\      /  F ield         | OpenFOAM: The Open Source CFD Toolbox           |
|  \\    /   O peration     | Version:  v1806                                 |
|   \\  /    A nd           | Web:      www.OpenFOAM.com                      |
|    \\/     M anipulation  |                                                 |
\*---------------------------------------------------------------------------*/
FoamFile
{
version     2.0;
format      ascii;
class       volScalarField;
location    "0";
object      nutCoeffs19;
}
// * * * * * * * * * * * * * * * * * * * * * * * * * * * * * * * * * * * * * //
dimensions      [0 0 0 0 0 0 0];

internalField   nonuniform List<scalar> 
1000
(
0.011580387955407957
0.010183963864315334
0.00817120366393478
0.00592822570330411
0.003691092842334813
0.0017886189650613952
0.0005215461134717833
1.5963076889463898e-05
0.00015140443793174282
0.0006164417807692471
0.0011481465805494775
0.0016501963372206586
0.0021387816289231837
0.0026416646532083005
0.0031472762870512726
0.0036313307841728333
0.0040723487305602876
0.00445503844491615
0.0047728465894341645
0.005029000564769688
0.005235635227624448
0.005411271922163916
0.005577204790845772
0.005753632453049969
0.005956137966556727
0.0061928581302211376
0.006462559240870135
0.006753567606112573
0.0070438766779714465
0.007302615128665053
0.0074930395448622
0.007577018776177369
0.007520477224156982
0.007299060842295307
0.006902910632777148
0.006339613742244132
0.005634580296930992
0.004828599655872585
0.003936261096974784
0.0028748240329268555
0.0016530020934299103
0.0005426401574341139
4.848394158851931e-06
0.00041801272893395697
0.0017847319318699156
0.0037840648228803517
0.005949370729193504
0.007918677309126113
0.009641161734924979
0.010925233767693306
0.012798832215409667
0.011075396802274077
0.009013042583125004
0.007007727907570404
0.005018895033469058
0.0031118943945481732
0.0015038488028266432
0.0004281010677792604
1.028770745577344e-05
0.00013741582121382602
0.0005321080844335915
0.0009492404459031089
0.001311350408163458
0.0016520736247703709
0.0019643268084805748
0.0022242071667824383
0.002415867671411751
0.0025340416138069483
0.0025845812100848326
0.0025828170598956018
0.0025503108001829313
0.0025109212439038985
0.0024872484226012123
0.0024981226665556923
0.002557197073972385
0.0026721992786890893
0.0028442771042833334
0.0030671001186248197
0.0033259680400593403
0.003597534526447835
0.0038508110828463097
0.004050066282700398
0.004159378338456299
0.004148369214777202
0.003997932463994555
0.0037047389194259815
0.0032833734073642014
0.0027653759271321385
0.002146501355292052
0.001328669771524044
0.0004644926800383624
6.593969980473375e-06
0.0003397876068221997
0.0015050797636490098
0.003206151941256842
0.005063067937030426
0.006797993219993378
0.008424556513731368
0.01019450694897687
0.011834317929106055
0.013684758277732965
0.011571576185683377
0.009323371731454965
0.007428080377801738
0.005737585658160414
0.004110044511005485
0.0025785034357341248
0.0012788226282192288
0.0003971139491271032
2.6282356732613505e-05
4.5846735538924135e-05
0.00021484205168144143
0.0003795452017453602
0.0005233709377855816
0.0006313697697990467
0.0006852282260818835
0.0006792501199194029
0.0006205881892517027
0.0005261442251571255
0.0004171547165106731
0.00031328903510346664
0.00022824640003327656
0.0001682613964439949
0.0001336860354380803
0.000122571449255007
0.00013435159409021664
0.0001718205896524463
0.00024041098415217307
0.0003450290705054709
0.0004857501048920135
0.0006541783205284927
0.000832112025311973
0.0009933524795911813
0.0011085478731620005
0.0011519364169366812
0.0011082388750675788
0.0009777720706097507
0.0007781978282843964
0.0005149407367820762
0.00017864149474119837
1.0828699071760099e-06
0.0003411002308935372
0.0013076780346398253
0.002684642263063833
0.0041664513057063455
0.005568000985573585
0.006891340391670371
0.008409594589901008
0.01044350530229083
0.012539783743194415
0.01434810850320664
0.011826830953519272
0.009263255789864429
0.007258032337580431
0.005692216785971691
0.004347606662497614
0.003128010844035727
0.0020132410873815805
0.0010664161842287281
0.0004124241485330897
9.349251353111812e-05
5.583764894485663e-06
3.758381620189772e-06
1.966746810876375e-05
2.8134894257717605e-05
2.034189279035141e-05
4.596216704877264e-06
2.4884723682813277e-06
3.999554504737242e-05
0.00013639771825455613
0.00029485881087127106
0.0004981750767246101
0.0007114768947288481
0.000891280336208119
0.000997895749102324
0.0010070924669838136
0.0009171442762975981
0.0007490716891866177
0.0005401930292657703
0.0003332434164070813
0.00016458058958496177
5.5051988007763e-05
6.165393433402966e-06
2.4346312085922896e-06
1.8973444864574228e-05
3.182918805732308e-05
2.7761271886674393e-05
1.0319099657790821e-05
7.882428820689205e-07
7.60161423129835e-05
0.00042097163465245826
0.0011466201439981818
0.002140162520138394
0.0031903877627238028
0.004201160342815943
0.005217242556139998
0.006412832818626095
0.008138084677157882
0.010628974111027164
0.013239223563740498
0.014931120061455356
0.012031328520510313
0.009072565363748734
0.0067565802995991
0.005065446114983381
0.0037989354476463733
0.002822914447866079
0.002029824094874633
0.0013400661799196848
0.0007655941092181178
0.00037010841405729573
0.00016012817716538896
6.937089063472456e-05
3.7608986207838575e-05
3.789329856754961e-05
7.093860561448334e-05
0.00016343601247306982
0.0003581633892754862
0.0006961146597698993
0.001196357670436781
0.001840604658253645
0.0025683307581736417
0.0032849600990377654
0.0038814733003578817
0.004259795650893745
0.004356539948676075
0.0041581994578864
0.0037035516602903647
0.0030730031085777288
0.0023683564568979117
0.0016889984209649247
0.0011110859499627482
0.000675264946656908
0.0003854613982267184
0.0002182025214710443
0.00013878138152646327
0.00011864239522399381
0.00014824225601847225
0.0002463983113585
0.0004781577215188077
0.0009066619947025691
0.0014836887746121484
0.0020907731655989783
0.002692994278430363
0.0033868455166053127
0.004324485326301837
0.00572467992690348
0.007914616868668239
0.010986658421628607
0.014118886702089257
0.015566181118287538
0.012357003756057439
0.008984869486941698
0.006235566349110349
0.004230807666360198
0.002831246874692363
0.0019008254038683176
0.001297181041170242
0.0008701960433736424
0.000528103760018174
0.00026374294506409417
9.473676347765749e-05
2.0363028739155236e-05
3.1898117433596047e-06
3.939540836419995e-06
2.62322726106726e-05
0.000120712322612889
0.00036702259372170494
0.0008426535796796844
0.0015884738651090646
0.002582505906522418
0.003731356828961874
0.004883252908601609
0.005859865536937193
0.006497896539810654
0.006688533967610811
0.006403481191843039
0.005700487188774454
0.004707330411946416
0.0035894220352394378
0.0025105084983048794
0.001597308486433476
0.0009176490703787819
0.0004769936156100038
0.00023305422334840955
0.00012275048651297246
9.217298739238632e-05
0.0001196774246961097
0.000218964826491904
0.00040198822826445436
0.0006473844160620257
0.0009131250368168533
0.001192283447558759
0.0015793596325046825
0.00223894594519394
0.0033598927553063177
0.005183368493092494
0.007990021187545446
0.011690376145806713
0.015301941028027868
0.01634037771585044
0.012919314549197182
0.009172824669970351
0.005947712338642892
0.003538582268345173
0.001909026362310824
0.0009318742249426335
0.0004174484050352882
0.0001632520519565415
3.730398578950842e-05
6.260124304244729e-07
7.125186259666074e-05
0.00023712234252156578
0.00037452359384009833
0.00038380737099747016
0.00025978613646827984
8.483111031321351e-05
3.544398760776964e-07
0.00015728005756085182
0.0006606981836493905
0.001526355294146115
0.002663389898481516
0.0038894916113027807
0.004974711831839961
0.005700916269748079
0.005919284530365079
0.005589085449121516
0.004786692874891307
0.0036829416351679624
0.002496052351146204
0.001434242477317988
0.0006445444872429225
0.00018245162540671668
1.0116002810796549e-05
2.2677547329005513e-05
9.35671060467821e-05
0.00012404230260400578
8.106780169081145e-05
1.5007556282813704e-05
3.4976712977621267e-06
4.3550631210327504e-05
0.00011689891188377668
0.00025456539330301944
0.0005739151187806085
0.001291450370879181
0.0026836974626640478
0.005032834485058664
0.008521671267627576
0.012817828925033962
0.016810458649578332
0.017266294768256966
0.013750290626197866
0.009722510096817053
0.006044856496172161
0.0031982060220622976
0.001313016784348106
0.0003264327995968107
9.560434037297487e-06
7.567132749807544e-05
0.00034286203062733166
0.0007789069925347068
0.0014391850060884266
0.0022137570501956517
0.002752300850613024
0.0028456973945810097
0.0024730930065513324
0.0017614429804929084
0.0009435322609536199
0.00028506330409719486
2.4716193482507633e-06
0.00019626753179183685
0.0008202781731398419
0.0016960337783451563
0.0025676030040310614
0.0031795583149856017
0.0033539696671980677
0.0030429537415430884
0.002341152651742764
0.0014550325492455741
0.0006388410609269692
0.0001170062400594646
1.6512194624129686e-05
0.0003298098037533921
0.0009194328160505365
0.0015631491887339371
0.0020259498455532203
0.00213699566528705
0.001847861013125928
0.0012972436796207648
0.0007985745889212345
0.000456695440891451
0.00019746210427603743
1.8676409494738227e-05
9.066065802806214e-05
0.0007734546804586305
0.0024600258078015576
0.005399846423114175
0.009558431968859374
0.014321723560907869
0.018536821970663912
0.018260352818809153
0.014776806929050187
0.010615083511894087
0.00657821086721249
0.0032922506239753875
0.0011004020623675305
9.969644818506593e-05
0.00011562860866026604
0.0008064446793772072
0.0018883846279778434
0.0032546723960265415
0.004910825408809829
0.006576851135491698
0.007669726205918743
0.00787974015639036
0.007181436016022353
0.00576643019489958
0.003984225629198784
0.0022423891190739786
0.0008944925117828475
0.00014817873756554106
1.980232440330654e-05
0.00034796434980989115
0.0008601785227209018
0.0012707197811577067
0.0013783873352492507
0.0011334451648509756
0.000653056402533942
0.00018075499005470257
2.8786607340548997e-06
0.0003481575316008836
0.0013019807142338837
0.002762659126998966
0.004454676836653371
0.005996960513308333
0.007007263949135015
0.007212751512154515
0.0065341152953505505
0.005194187531305503
0.0037587255915171366
0.002497169301552636
0.001351717300978892
0.0004041385835478631
7.305796246827625e-07
0.0006520187935368469
0.0027402562306839883
0.006312235135436429
0.011012361901672945
0.016003784070566265
0.020231918313675948
0.01913803024864993
0.015810271716616274
0.011705547981705934
0.007487744549178127
0.0038251764922691313
0.0012480699464469224
7.145199588504781e-05
0.000296377736173087
0.0016436147853071497
0.003740392642138425
0.006279030495431461
0.009008667546196968
0.01143685179394906
0.012899574946415419
0.013062412741633533
0.011927771611487047
0.0097746302090403
0.007078598718333091
0.004384235278943356
0.0021648399378809058
0.0007089286310918594
6.50524139787466e-05
5.9324318131582055e-05
0.00037814539771470533
0.000688952391526013
0.0007603581130101205
0.0005437304851245862
0.00019054698180384635
5.4423802791024576e-08
0.0003134835813365089
0.0013877439452287246
0.0032883438361544525
0.005835952443570294
0.008625637240513706
0.011116517638836651
0.012768013542143452
0.01318535798025786
0.012232606579860044
0.010142657690408896
0.007558395859703741
0.004953236325306858
0.0025510069396564943
0.0007202186280174256
1.1864775143988025e-07
0.0008838957235103327
0.0035325668470711
0.007663727832587934
0.012621782321490856
0.017515271678874875
0.02152954702625981
0.0196414773636898
0.016568033460767177
0.012719177591140248
0.00856984808573142
0.004706095367624371
0.0017440877277660684
0.00017870327413415274
0.00022770357452126484
0.0017823447406578913
0.004475007176435771
0.007782606621277813
0.011088095478941221
0.013709791775666757
0.015071015799384038
0.014902054963390466
0.013273140308769556
0.010562876602284055
0.007355696330925334
0.0042892240425006075
0.0018927376776485968
0.0004614235262963316
1.2014244693040048e-06
0.000258916791070078
0.0008272500084413501
0.0012915695002669572
0.0013731778214874806
0.0010246804254568655
0.00044786774480760926
2.8255243257443627e-05
0.00020585803549289249
0.001321303978469067
0.0034843583498732236
0.006505819492252543
0.009915630191280564
0.01306547462317871
0.015288864629178637
0.01607531312266944
0.015210321412918056
0.012851827163268017
0.00952651598175564
0.0059090439929765206
0.0026833292905817474
0.0005396140371407518
5.714317409578154e-05
0.0015097601293722158
0.0047322240296030806
0.009147920461011988
0.013958323161824734
0.018416838175018664
0.02202400462042553
0.01950738324364722
0.01674319205247987
0.013303317331335978
0.009477031015929121
0.005683494442225673
0.002503897592336093
0.000501313783778348
3.885359553203033e-05
0.0011831656171821723
0.0036633362931460223
0.006870499920495607
0.00994870777269723
0.012131156073380422
0.012989419208931636
0.01236522565012727
0.01042047263651704
0.007621315300785387
0.004615112369490462
0.0020601201247706937
0.00045368956066512805
6.621509576515853e-06
0.0005992579299551561
0.0018320875062551728
0.0031563412082739693
0.004046409725953507
0.004163227170438924
0.003460220976298631
0.002200129109232543
0.0008772250455816426
6.732024881306177e-05
0.000249167475076919
0.0016492968191746341
0.004155998014901091
0.007328422188811471
0.010500114976952003
0.012949082459739494
0.014088269553266782
0.013624129171955138
0.011606541644045267
0.00839270363318199
0.004770702477497722
0.0017468500331698136
0.0001361925187725817
0.000377041074316053
0.0024681330212436175
0.0059991437968349515
0.010268043195805618
0.01452901925261943
0.01830667741131877
0.021393710610025492
0.01855894318358987
0.016110763547118823
0.01314513615341347
0.009813226095163509
0.006357205559205024
0.0032479273541850162
0.0010075771370027956
2.645488110783898e-05
0.0004610934006780706
0.0021545358293597596
0.004568602025638448
0.006860950039454932
0.008315738808476206
0.00862050240314527
0.007722430498350256
0.005866922655016234
0.003569460702191475
0.0014790418666742388
0.00020136019657552036
0.0001295323945949987
0.0013300070378128004
0.003517233191346279
0.006126310754244193
0.008465201908448116
0.009904725016490366
0.010053226015151944
0.008866713976903303
0.006662989651493812
0.004035525570317301
0.001690945016685491
0.0002553165951081624
0.00010291226353307281
0.001254844487605786
0.0033750377346131767
0.005864255692582956
0.008025602500615467
0.009255639601127507
0.0092089610966852
0.0078509474298314
0.005430130196476911
0.0027009863726715757
0.0006612373638483477
7.3135647193826685e-06
0.000976549675488428
0.003396718298197708
0.006788170495888788
0.010500591574751418
0.0139644185002904
0.016977926844961366
0.019529937130259755
0.016781507126767313
0.014622736607507457
0.012107555651560617
0.009310631726876668
0.006347425228713562
0.003570566338826779
0.00140919903940591
0.00019794821706651072
8.971951319120154e-05
0.0009947314747065198
0.002511585061180964
0.0039795276293492065
0.004822572212774715
0.004798167535371844
0.0039238514333442024
0.0024915172625667613
0.0010154244469469393
9.29796685336593e-05
0.0002340819357424746
0.0017056574049553453
0.004435895466422767
0.008007582914839195
0.011745684601469325
0.014878219595605407
0.016728387007209276
0.016886432753998887
0.015315102429597322
0.012359905051172742
0.00866143096085092
0.004993383076288743
0.002069542215608743
0.0003710163389157959
3.909283156079767e-05
0.0008604796900931931
0.0023467440903458107
0.003883971650514695
0.004910369365263747
0.005072869088285362
0.004296400555712116
0.0027819774654057015
0.0011358126874178413
0.00011462805471763724
0.00019412481532540962
0.0014731481355123482
0.0037510045731165395
0.006615310619516312
0.009559115299952443
0.012203559555994973
0.014529195561204758
0.016608513180573152
0.014341422786604704
0.012438273683139418
0.010301192514032732
0.007977840689838455
0.005526302220363315
0.0032146191837542416
0.0013802322098597434
0.00027862343378962475
1.315344838234136e-05
0.0005067947661606575
0.0014662910669855085
0.0024214300533119348
0.002939623952172357
0.0028182410667487805
0.0021017891287904533
0.0010802362171131925
0.00022266386436832795
4.7176109847631456e-05
0.0009674236594953768
0.0031580923267041866
0.0064782229634823
0.010476428541285875
0.01447979875238219
0.017745543212707333
0.01963642191403445
0.01977453607892037
0.01813318548118523
0.015042926306478207
0.011110397117581857
0.007071456251915737
0.0036169427537182134
0.0012359134332772376
0.00011659203607633574
0.00012827778951474104
0.0008865482924317421
0.0018810692665940498
0.0026293289099718533
0.0028137348245799087
0.0023573690879861624
0.0014358818101474268
0.0004871380905959859
9.058528036947279e-06
0.00030270725712665833
0.0014201227473885707
0.0032149643952967574
0.00538993592848586
0.007585365682096733
0.009558488107316151
0.01135757065375229
0.013056731941672967
0.011537210057993413
0.009870447435358079
0.008043326069451177
0.006106221646589249
0.004114846845417867
0.0022911298692015704
0.0009025662735300333
0.00013555764323808632
4.0516015026921835e-05
0.0005251559120764296
0.0013483722555325429
0.0021574928438158813
0.0026092731668636415
0.002510860495370447
0.0018924084982710197
0.0010003533437941683
0.00023156612838766064
2.194287148828101e-05
0.0007172078153472151
0.0024617709614659735
0.005137469397478433
0.008370916583362989
0.011609394398339518
0.014246697674104629
0.0157665039797836
0.01586625576733816
0.014529617383144322
0.012029058210437286
0.00885833271404659
0.005612786744833159
0.0028483815095656007
0.0009559091916288761
8.20137481042718e-05
0.00011602948600464557
0.0007438495795165429
0.0015520041155655782
0.002152045949831188
0.0022908144957244
0.0019182942724570238
0.0012003658667286683
0.00045985109773389113
3.166816407893271e-05
0.00013009777531325983
0.0008147914851599374
0.0020104795420060957
0.003525298350171698
0.005111934012273289
0.006599941020773731
0.008023144912882627
0.009418795660709774
0.008709110436622659
0.007279972764222331
0.005730096201357256
0.004127380496457637
0.0025544198818460455
0.0012113708599482908
0.0003152148672413316
9.708566045412424e-08
0.00027600870426215836
0.0010303153225296308
0.0020361534205431044
0.0029906006836442557
0.003583562183968576
0.0036056130594699235
0.00304449036549399
0.0020781877305312982
0.0010196253490117393
0.00022929142859441707
1.3204734627678243e-05
0.0005343356569375399
0.001762097230269653
0.0034739708468020953
0.00530890119269477
0.006858009132139246
0.007768345612790038
0.007832216434621692
0.007038863467161615
0.005575397177673135
0.0037772742558929307
0.002041717000502311
0.0007271194480175104
6.472264677127771e-05
0.00010581989362934779
0.0007176847312375307
0.0016284849403498199
0.0025080184254560886
0.0030616162778761974
0.0031113840905819005
0.0026493637116361208
0.0018493427563016863
0.0009812370282719892
0.00030501219332120964
5.929682745123106e-06
0.00016655664065382225
0.0007701196011998053
0.0017049088899251527
0.0028013689958491144
0.0039214129646689255
0.005050620138226943
0.006181614055045704
0.00614973422342706
0.004970302079770963
0.003697834938158934
0.0024227930486874945
0.0012604079416112502
0.000396856424307822
9.889732434666919e-06
0.00019561591923186213
0.0009378347801229845
0.0021090386482965255
0.0034823118474932063
0.004769661612228286
0.005671525782747162
0.005963528271965139
0.005586694891693508
0.004644267380557267
0.00336272546744339
0.0020295863455824705
0.0009181018493098865
0.0002194243252744619
9.01796866917442e-08
0.00019522444534477668
0.0006376355210601477
0.0011132659867866238
0.001426721794875062
0.0014585372585279733
0.0011986775209421856
0.0007476075379689215
0.00028515200034424313
1.6063956739012903e-05
0.00010755202780946665
0.0006362101308079357
0.001559393129154316
0.00271944595953974
0.0038801888033200777
0.004786019662648436
0.005227701863516827
0.005097105143106248
0.004423667173319684
0.0033842286681650697
0.0022227360577889354
0.0011693517112093973
0.00040416358349473053
3.115443125241185e-05
7.515715730496864e-05
0.00048155473973239256
0.001135817977007357
0.0019185599584269643
0.002770021741598604
0.003644858422010244
0.004047562817764135
0.0031249183176597205
0.0021388888605417505
0.0011990141324950902
0.0004413034943327965
3.2585491355358074e-05
0.00011400490149772056
0.0007518465779313091
0.0019145862280642953
0.0034705573966000523
0.005199396848789847
0.006828275027577513
0.008081755394756534
0.008748766411766284
0.008740945629961373
0.008096971908521329
0.006961881271064226
0.005547348648080862
0.004080570678764495
0.002755345658455269
0.0016975505439679806
0.0009523304882000177
0.0004940006150343145
0.00025338627772658964
0.0001531025666901233
0.00013978000788788102
0.00020383585412574995
0.00038135370278875175
0.0007379387528107967
0.0013396483360566909
0.0022199550077541684
0.003353104975264301
0.004642717530574991
0.00593042285741064
0.007023623526004444
0.007735888554050097
0.007929650554023136
0.007549939595248254
0.0066443485608682325
0.005366091412639809
0.003924720638089687
0.002529726068894294
0.0013571709243359086
0.000524215794828397
8.231136266288122e-05
1.6290749447250795e-05
0.000254370661385959
0.0006986895769699448
0.0012661780468553154
0.0018865341908898266
0.0024727750648919785
0.0017969517012716015
0.0010908078286582699
0.00047166290549168914
7.453893203240243e-05
3.4377089333216524e-05
0.0004518787163219808
0.0013645356983208526
0.0027307996849458994
0.00442828759396037
0.00626662743596311
0.008017991556084271
0.009460859181997893
0.010423567638765186
0.010813000064649017
0.010624924635525966
0.009937009573233641
0.008886569475141052
0.0076392493144349545
0.00635687380132985
0.005171971217160002
0.004173867943051344
0.0034076351883421873
0.0028836830752805597
0.0025931839802278652
0.002523589597194348
0.0026690263995057546
0.0030324417650664736
0.0036190133085677533
0.004423327180603924
0.0054148816784752845
0.006527456422288841
0.007657154977760892
0.008671471193817714
0.00942872515839883
0.009803707142167595
0.009713394196828009
0.00913601454369757
0.008118938673950436
0.006774265312013026
0.005258930451944737
0.0037434879430257215
0.0023815938965190864
0.0012876255291201396
0.0005260239801215617
0.00010893241797627416
1.429000403680235e-06
0.0001360139058554122
0.00043329271202793666
0.0008152358925522929
)
;

boundaryField
{
    "(inlet|outlet)"
    {
        type            zeroGradient;
    }
        "(front|back)"
        {
            type            empty;
        }
    "(top|hills)"
    {
     	type            zeroGradient;
    }
}

