/*--------------------------------*- C++ -*----------------------------------*\
| =========                 |                                                 |
| \\      /  F ield         | OpenFOAM: The Open Source CFD Toolbox           |
|  \\    /   O peration     | Version:  v1806                                 |
|   \\  /    A nd           | Web:      www.OpenFOAM.com                      |
|    \\/     M anipulation  |                                                 |
\*---------------------------------------------------------------------------*/
FoamFile
{
version     2.0;
format      ascii;
class       volScalarField;
location    "0";
object      nutCoeffs49;
}
// * * * * * * * * * * * * * * * * * * * * * * * * * * * * * * * * * * * * * //
dimensions      [0 0 0 0 0 0 0];

internalField   nonuniform List<scalar> 
1000
(
0.001246191152070764
0.0010277211033302305
0.000738633588623513
0.00045644357165150327
0.00022425000105640952
7.564439382530898e-05
1.1910748929960582e-05
6.377858919686763e-08
-1.8629787790598526e-06
-1.5305167945879168e-05
-3.890415663239442e-05
-6.70352800775189e-05
-9.891215583369686e-05
-0.0001357739733987755
-0.00017656405908473592
-0.00021882589681822612
-0.00025987675892704705
-0.0002973563274026458
-0.00032973588441694924
-0.00035663382094174126
-0.0003788384680577837
-0.0003980604570840734
-0.00041650947710718733
-0.0004364285698641411
-0.0004596710191066283
-0.00048734520407004556
-0.000519525424401063
-0.0005550088106905519
-0.0005911771177505265
-0.0006240474584592356
-0.0006486150730108191
-0.0006595497274007254
-0.0006521809371553951
-0.0006235919147752789
-0.000573519747759508
-0.000504770769013893
-0.00042295324218499954
-0.00033553034132143017
-0.0002469595624372225
-0.00015414054855405736
-6.720631843317944e-05
-1.2640606007034131e-05
-1.0675712731293535e-08
8.546420557985224e-06
7.539794183968484e-05
0.00023277581249192428
0.00045888783900735914
0.0007046589435007373
0.0009466600560488773
0.0011419474197105124
0.001447956512773587
0.0011655715603081569
0.0008556716326140243
0.0005866321309014944
0.0003555594037435579
0.00017359502530367652
5.831848879958773e-05
8.85766939532799e-06
3.299726229987594e-08
-1.6108500184307246e-06
-1.2274386262144587e-05
-2.9245856989894785e-05
-4.748737174836291e-05
-6.714970308073506e-05
-8.706039147888926e-05
-0.0001048969482895483
-0.00011874346379812378
-0.00012756179264734025
-0.00013139694684319924
-0.00013126243894625648
-0.0001287922306413074
-0.00012581998719431221
-0.00012404485225424577
-0.00012485922642784255
-0.0001293142240708412
-0.00013813485102304835
-0.00015169031668771095
-0.00016986031658235718
-0.00019181258909972072
-0.00021577814537564159
-0.0002389617112117159
-0.00025774674907621994
-0.0002682517961632072
-0.00026718748007802795
-0.00025278609447388934
-0.00022549473786302634
-0.00018813968590848163
-0.0001454223863091201
-9.944815962604704e-05
-4.8431239242134923e-05
-1.001078908625125e-05
-1.693247521124673e-08
6.26341664344923e-06
5.839010749864494e-05
0.00018154159631747943
0.00036026380557072334
0.0005604941584205726
0.0007732511453586228
0.0010293174593201883
0.0012874039836276098
0.0016008686354124465
0.0012447690416510031
0.0009002424762044024
0.0006401988530729881
0.00043460405434662697
0.00026349342814858945
0.00013093373950523083
4.573150231094127e-05
7.913574836306599e-06
1.3473997380150245e-07
-3.1042924350038764e-07
-3.1490455068530617e-06
-7.394269206708303e-06
-1.197331489864028e-05
-1.5864473947117293e-05
-1.793712630832444e-05
-1.7702906909985126e-05
-1.545984940244974e-05
-1.2068608857094191e-05
-8.520120506607422e-06
-5.545207382016764e-06
-3.448306848385897e-06
-2.182612978732036e-06
-1.5457137356819325e-06
-1.357012917256e-06
-1.557271141617223e-06
-2.252230355914912e-06
-3.727618508465533e-06
-6.408900547319967e-06
-1.070580563797823e-05
-1.673185996903077e-05
-2.400339640871785e-05
-3.130798162778166e-05
-3.6908949082649046e-05
-3.909693949606148e-05
-3.689351808445864e-05
-3.057429430044217e-05
-2.1708760218794484e-05
-1.1685192602824725e-05
-2.3876656741269315e-06
1.1268456365703457e-09
6.299745718987116e-06
4.728803233274989e-05
0.00013910080207391937
0.0002689363248540885
0.00041547888285461395
0.0005720784035089991
0.0007711921313710362
0.0010672580453778375
0.0014042197283806036
0.0017186679504111644
0.001286182463603838
0.000891549549384725
0.0006183414332120001
0.0004294594341124181
0.00028666545998927824
0.0001749453384910054
9.033242678275261e-05
3.482491709009124e-05
8.375603885150756e-06
9.039933876821645e-07
1.3194431595007109e-08
-7.286203779787811e-09
-8.722132541704686e-08
-1.4923405191662573e-07
-9.174597949397091e-08
-9.853731978052815e-09
3.925538437031085e-09
2.5293995059873706e-07
1.5929812273791207e-06
5.063154321894612e-06
1.1119185985640994e-05
1.8977596189040696e-05
2.6608567076347973e-05
3.152301574413748e-05
3.195979766813583e-05
2.7775154928851243e-05
2.050147345106223e-05
1.2555195035146607e-05
6.083343884132557e-06
2.1113873764892036e-06
4.084693835101926e-07
1.530880155085649e-08
-3.798829283710783e-09
-8.264551388064123e-08
-1.7957188447377104e-07
-1.4627127238625233e-07
-3.314841062973681e-08
6.998260212087834e-10
6.627637387595352e-07
8.637324788873412e-06
3.8826599046594275e-05
9.900796433243037e-05
0.0001802043234102997
0.000272303915337192
0.00037684394548667823
0.0005135407099206348
0.000734147470199712
0.0010958144522411031
0.0015233292243327877
0.0018244777923428518
0.001319685297619003
0.0008641619872831326
0.0005553802272482548
0.00036051766510346577
0.00023414930388564469
0.00014998456737171263
9.145082025953453e-05
4.9055687902610956e-05
2.1183507688002126e-05
7.120220410992224e-06
2.0262901802340385e-06
5.77784524582531e-07
2.3064149265282925e-07
2.33261797326773e-07
5.974808242371059e-07
2.0894002228732143e-06
6.778315612689889e-06
1.8366278679510546e-05
4.138010207332049e-05
7.896611558983854e-05
0.0001301596671485892
0.00018827608026487686
0.00024182149662068373
0.0002780245514269267
0.00028754945657540043
0.0002681377594985815
0.00022538634996723965
0.0001703509262758959
0.00011525787326505411
6.941348756094219e-05
3.7035778986741107e-05
1.7547340713870003e-05
7.567829493369023e-06
3.223217759204452e-06
1.6349211409371243e-06
1.2922896285855498e-06
1.8049202750165479e-06
3.867733933304656e-06
1.0455787785084793e-05
2.7300343856246082e-05
5.714973439363351e-05
9.560054676900703e-05
0.0001397504278151643
0.000197102930602351
0.0002843816971645908
0.0004331385264521483
0.000704117023665972
0.0011515914547273079
0.0016776473679507389
0.0019421068451824489
0.001373630002545137
0.0008516627636796464
0.0004923952525381567
0.0002751914420158804
0.00015064912374614992
8.287305356880504e-05
4.671979075076039e-05
2.566998745629233e-05
1.2136092820731258e-05
4.283228830421039e-06
9.220995616282512e-07
9.188900762562478e-08
5.69701783251242e-09
7.819309616371267e-09
1.3435501304307526e-07
1.3262561455365758e-06
7.03135783041896e-06
2.446096606214871e-05
6.330967889146595e-05
0.00013123871977475214
0.00022792930895369537
0.0003412430587515785
0.0004485712920980061
0.0005237923946472652
0.0005470114353975377
0.0005124177998224063
0.00043039573690813464
0.000322969881654981
0.00021504868284777075
0.00012578896500758425
6.383857711986105e-05
2.7798089155083158e-05
1.0417628096486914e-05
3.5578322402025545e-06
1.3599872384166045e-06
8.849230250389723e-07
1.3092372485703368e-06
3.2401232913140087e-06
8.059720906363009e-06
1.6471887261615882e-05
2.7592774783758275e-05
4.1168900843039334e-05
6.276558056152893e-05
0.00010594132804895437
0.00019475477880363226
0.00037317979933111997
0.0007142033721957776
0.0012639873503397436
0.001892865631441602
0.0020887820988327276
0.001468450151249987
0.0008785260398475656
0.00045869597950116606
0.00021049604748056683
8.34099553289982e-05
2.8446965717430477e-05
8.529119692829665e-06
2.085873531059657e-06
2.2784151277811555e-07
-4.953069652702697e-10
-6.014428032919205e-07
-3.65139414678039e-06
-7.248009821761269e-06
-7.51917108678181e-06
-4.187202424211361e-06
-7.813268104780141e-07
2.1101526035851845e-10
1.9724703749363793e-06
1.6982619112050086e-05
5.9632560307241353e-05
0.00013745233514752544
0.000242571212327989
0.00035087456959455353
0.00043044433225380475
0.00045541132307605264
0.00041784106918037704
0.0003311717969604292
0.0002235075791942439
0.00012470404324622952
5.431676183292361e-05
1.636361855819083e-05
2.464459043522456e-06
3.2174618938098e-08
-1.0799263127134492e-07
-9.050754730784998e-07
-1.3815122150350724e-06
-7.299155143437938e-07
-5.813865375732519e-08
6.541366609516555e-09
2.874032539695926e-07
1.2639086992735662e-06
4.061617721053672e-06
1.374901223478146e-05
4.6410535769682835e-05
0.0001390273783639541
0.0003570417249139183
0.0007866601765400287
0.0014511814101378882
0.002179562584977972
0.0022688131271432804
0.001612381536123119
0.000958666616470118
0.00046997958438326214
0.00018086713324483745
4.757791615021761e-05
5.897808737613675e-06
2.956081572109462e-08
-6.582593388790511e-07
-6.348616440514987e-06
-2.1738441457137983e-05
-5.4597774265465076e-05
-0.00010415855252877526
-0.0001443922409108267
-0.00015180395075206589
-0.00012298741516824513
-7.392696616327856e-05
-2.898245238370281e-05
-4.812956892854131e-06
-3.885727844385828e-09
2.7496200843335437e-06
2.3493176056777454e-05
6.98476415029363e-05
0.00013010434861563433
0.00017928757451204515
0.00019424001184986444
0.0001678583792592929
0.000113277745863845
5.5502054937852375e-05
1.6146902889991336e-05
1.2656497438824194e-06
-6.709763276122209e-08
-5.9895658183393406e-06
-2.7879180300333903e-05
-6.18017317048978e-05
-9.118912209264284e-05
-9.878828860863156e-05
-7.94335466613693e-05
-4.67231748088099e-05
-2.2566968873661544e-05
-9.75977968730779e-06
-2.774761379934863e-06
-8.071236656074696e-08
8.632335287028592e-07
2.1510589271105055e-05
0.00012201395223658289
0.0003968004101259414
0.0009345014512988838
0.0017139294058489424
0.0025237882752713377
0.002467537416414477
0.0017962670292372054
0.0010936670373166925
0.0005335334911282263
0.0001889032078682328
3.6502876871800353e-05
9.95450179915044e-07
-1.2433630295865e-06
-2.2901391517074162e-05
-8.206078832203327e-05
-0.00018567820148342824
-0.0003441372954948238
-0.0005333680757280562
-0.0006716914051191976
-0.0006994679900445918
-0.0006085789732143828
-0.00043788549422418214
-0.00025148720095798674
-0.00010618580555918984
-2.6752542573151542e-05
-1.803760348033264e-06
8.811995289466953e-08
6.490858277989368e-06
2.522800405193324e-05
4.5297547167194715e-05
5.1174889217258096e-05
3.8159332676831895e-05
1.6688835635733458e-05
2.430163218604795e-06
-4.884113253419109e-09
-6.496264390633116e-06
-4.6979330875707494e-05
-0.0001452081370440496
-0.00029732012423930386
-0.00046440488983412736
-0.000586573873412571
-0.0006125639798638372
-0.0005281778569116018
-0.0003743487937550884
-0.00023044162620036284
-0.00012478775772419628
-4.9696843884832015e-05
-8.1244781024168e-06
6.244552681641162e-10
1.664907734121994e-05
0.00014344544458484338
0.0005015044054745554
0.0011556350700565516
0.002024575721866238
0.0028777667759300484
0.0026475602680604525
0.001987966221085987
0.0012664487633534524
0.0006479276736216569
0.0002365795586247075
4.4091856798398555e-05
6.039785940512504e-07
-5.102327895721729e-06
-6.663464050289311e-05
-0.00022875773668523233
-0.0004975524721882245
-0.0008550486786076367
-0.001223093730236135
-0.0014650859386025252
-0.001492915075210276
-0.0013026836796379562
-0.0009663857211864479
-0.000595553717214377
-0.0002902958174551541
-0.00010072532725138458
-1.8875730779263005e-05
-5.246807439133953e-07
4.5692943177142356e-07
7.353400641716691e-06
1.8083555277039606e-05
2.0966564589085612e-05
1.2678723321516445e-05
2.6302868343188316e-06
-1.2696479809818006e-11
-5.550373378337607e-06
-5.169684170858102e-05
-0.00018856706132945955
-0.0004458282830161359
-0.0008011000969246799
-0.0011720688992838332
-0.0014427297986226678
-0.0015140418785804745
-0.001352939923804934
-0.0010214747901339583
-0.0006571196444933283
-0.0003486049694888795
-0.00012884496743340495
-1.9328427601522165e-05
4.086855364377287e-11
2.62785591380138e-05
0.00020995952577887754
0.0006709035801366564
0.0014180156661204163
0.002318063438044187
0.0031590197331905364
0.002752714852889341
0.0021325854630685477
0.0014344603446928184
0.0007933406088235602
0.000322842785428717
7.28370737038706e-05
2.3889043669226608e-06
-3.4360127952977767e-06
-7.524671820146751e-05
-0.0002993578176923498
-0.0006865744201809451
-0.0011675767423988727
-0.0016052633418492713
-0.001850179172054293
-0.0018191530600909097
-0.0015291867557146906
-0.001085608685945422
-0.0006308639162129807
-0.0002809105807021966
-8.234469801673709e-05
-9.911733140425246e-06
-1.3168754744051474e-09
4.166202007161284e-06
2.379332684091173e-05
4.641695760323203e-05
5.08850459032809e-05
3.2800665846861674e-05
9.478174036584036e-06
1.5019261398784114e-07
-2.9536003850878953e-06
-4.802906299206489e-05
-0.00020567628563772735
-0.0005247506848367633
-0.0009873712598390968
-0.0014934400238246675
-0.0018904398041702144
-0.002038164165267505
-0.0018758909447674898
-0.001456958946232333
-0.0009298248539248537
-0.0004542300217694766
-0.00013899876993591964
-1.2535014996413302e-05
4.3196299163816575e-07
5.866268382522006e-05
0.0003255351919145254
0.0008749506735178145
0.001649110942002776
0.002499324279262177
0.003268469481780237
0.0027245734757135507
0.002166493489339542
0.0015344047208424472
0.0009225893839138291
0.0004284727032132278
0.0001252924333298148
1.1224434468743298e-05
-2.421847664159866e-07
-4.0697554258508305e-05
-0.00022172526513523628
-0.0005694852871180289
-0.0009923160402020511
-0.0013361440598966448
-0.00148041882719595
-0.001375001174596172
-0.001063729310726049
-0.000665341930140596
-0.00031352589743415747
-9.350585742941259e-05
-9.663582963254239e-06
1.703866315518956e-08
1.4669681494335417e-05
7.841864243830493e-05
0.00017732742925305613
0.000257397772247355
0.0002686242177660527
0.00020354280342581925
0.00010319823048907066
2.5981638391549402e-05
5.523553548484466e-07
-3.933118460358374e-06
-6.698047639315749e-05
-0.00026792485057225104
-0.0006273584059859359
-0.0010759475029216328
-0.0014735283459505139
-0.0016721932988335274
-0.0015902416682485713
-0.0012504152191765133
-0.0007688698500104811
-0.0003295137178673179
-7.301018244409945e-05
-1.589387810034848e-06
7.321212226303621e-06
0.0001226176091341521
0.0004646585232760252
0.0010404747145064137
0.0017512754067015826
0.0024769331930834925
0.003129170125157084
0.0025283073274674555
0.002044909937904021
0.001507119306033749
0.0009721151412164032
0.0005068732612151057
0.0001851012963527686
3.198287174488979e-05
1.3606885213518838e-07
-9.901098013967247e-06
-0.00010000704179026573
-0.000308798364838503
-0.0005682983371487638
-0.000758317816899838
-0.000800384861688565
-0.0006786268092748577
-0.0004493818670500205
-0.00021325730051944929
-5.6881455584545464e-05
-2.857330255053446e-06
1.4742379655605223e-06
4.850437452188016e-05
0.0002085939673629618
0.00047951095502708584
0.0007788538692539502
0.0009857428466795194
0.0010079945166497758
0.0008349184319238488
0.000543880775506617
0.0002563599364265144
6.953352224004534e-05
4.0796092337737085e-06
-1.0440004738395562e-06
-4.4451340343383384e-05
-0.00019607307018533089
-0.00044907548453472913
-0.0007189794354591852
-0.0008904502360521526
-0.0008837225914869996
-0.0006956376895512743
-0.00040014312910062846
-0.0001403730025753831
-1.7003412024905798e-05
1.9778514196444045e-08
3.051697697799368e-05
0.00019796540201695478
0.0005592797727904368
0.0010760207592667534
0.0016501912637431298
0.002212213238424309
0.0027292999537853768
0.00217393443879172
0.0017682472282116238
0.0013322468771049922
0.0008983978901424072
0.0005057040019896098
0.00021335639252303574
5.290034540454368e-05
2.7850140571067296e-06
-8.498266824176423e-07
-3.13731979555084e-05
-0.0001258698854148028
-0.00025104252039036024
-0.0003349022838330732
-0.00033236333791934964
-0.0002457926168451115
-0.0001243643346743493
-3.2357236458276443e-05
-8.965654325057771e-07
3.581391926883729e-06
7.044297774663047e-05
0.00029544180972928473
0.0007165593486233269
0.0012729680464330729
0.0018147902887065618
0.002163620565600123
0.002194354918072475
0.0018953082745835977
0.001374113801856019
0.0008060917419894732
0.0003528517920985147
9.414807284431285e-05
7.146436735272916e-06
-2.444250385755513e-07
-2.5241254528129643e-05
-0.00011368380455882716
-0.00024205501052162713
-0.0003440893591697066
-0.00036131041655296985
-0.00028161588362716
-0.0001467338834459783
-3.82789550164637e-05
-1.2272594460431876e-06
2.7047154596381343e-06
5.6541800075038074e-05
0.00022973194549843996
0.0005380533772459912
0.0009346016641758012
0.0013481238358274208
0.0017513072841966305
0.002140405869444046
0.0017174668316507868
0.0013872034580291559
0.0010455173768931178
0.0007125708290469304
0.00041082034943045403
0.00018226123056336747
5.127766457842909e-05
4.650787112287918e-06
-4.77045097746604e-08
-1.1409015803204964e-05
-5.6147481810835433e-05
-0.00011915379869166383
-0.00015938141054147858
-0.0001496122687019211
-9.635709805618986e-05
-3.550406669274497e-05
-3.322573623556097e-06
3.240284840749389e-07
3.0090198765885764e-05
0.00017747501994773941
0.0005214153794822171
0.0010723088308711045
0.001742383656590523
0.0023639263806164803
0.0027516521541220387
0.002780734052774297
0.002441805996043754
0.0018450090124501194
0.0011711010577347752
0.0005946525538511039
0.00021752664053549154
4.344922946242039e-05
1.2589350643219048e-06
-1.4528714890857713e-06
-2.6396940681113705e-05
-8.158441087094807e-05
-0.00013482405187949776
-0.00014925357713148268
-0.00011445674119401978
-5.440991416745133e-05
-1.0751724665751953e-05
-2.7263803894683155e-08
5.26664747096034e-06
5.3516638419185824e-05
0.00018229059035659392
0.0003957085225646173
0.0006606398755615103
0.0009345096840633996
0.0012103979257383926
0.0014919412853848274
0.001239227949301439
0.0009806301913690846
0.000721362418083408
0.00047715430525377195
0.0002639553768377671
0.00010966664585440085
2.7115564591768787e-05
1.5782871280830824e-06
-2.578933153656474e-07
-1.2034620188771817e-05
-4.951248361269299e-05
-0.00010021299592744835
-0.00013328440027277774
-0.0001258154211410227
-8.232321722874739e-05
-3.1639538649957123e-05
-3.523810553869667e-06
1.0278747305264283e-07
1.9207353088252044e-05
0.00012214381115187146
0.0003682339884007901
0.0007658778708536486
0.001250876253997596
0.0017004791546830506
0.001979716975976442
0.0019985346226453213
0.0017513835525482567
0.0013193117785839875
0.0008337349015378285
0.0004205017548818516
0.0001520187778760296
2.955459119207749e-05
7.42728330722964e-07
-1.2498346265089968e-06
-2.0287460290542878e-05
-6.114195243543236e-05
-9.983373286105379e-05
-0.00010964400325237074
-8.401809788224824e-05
-4.158823182352538e-05
-9.861110862137883e-06
-1.7821092715622068e-07
1.4839005821555702e-06
2.325785843509231e-05
9.014662822174099e-05
0.00020931185018625628
0.00036549198583999526
0.0005361793474795407
0.0007186492135664724
0.0009140986395288604
0.0008127569586915397
0.0006211473429535724
0.00043375337793234204
0.0002651622902484392
0.0001291036226328507
4.2161464068862424e-05
5.596416643235074e-06
3.0250505343575936e-11
-4.585473283136204e-06
-3.307160238452089e-05
-9.187889159357453e-05
-0.00016354513980037347
-0.00021452228660576582
-0.00021650537221638068
-0.00016798554243099321
-9.473864407051888e-05
-3.255824118091676e-05
-3.4720160991634964e-06
4.7983786557413284e-08
1.2351543559293271e-05
7.396815783898635e-05
0.00020475723408797575
0.0003868182570539036
0.0005679329795200554
0.0006846881453144255
0.0006931496692008034
0.0005905461083790263
0.00041630700282890317
0.0002321495136028332
9.225572315714817e-05
1.960688678356611e-05
5.206961943679142e-07
-1.0885565139195207e-06
-1.9226514510531438e-05
-6.571668079797334e-05
-0.00012560186386534423
-0.00016940496605530274
-0.00017355232658696043
-0.0001363679698950464
-7.95291088059784e-05
-3.073695864350773e-05
-5.326915428947406e-06
-1.4439334821330298e-08
2.149527121660886e-06
2.1371611256502793e-05
7.039661277123418e-05
0.00014827074737720116
0.00024556353153952634
0.0003589360333707015
0.0004860185327864645
0.0004822636408645661
0.0003504081324502064
0.00022486469916642874
0.00011925441832036029
4.474728565430292e-05
7.905878261425753e-06
3.110117614725759e-08
-2.7359382565365465e-06
-2.8720335054775028e-05
-9.685606200709398e-05
-0.0002054951094406642
-0.0003294058844786369
-0.000427119958927154
-0.0004605268159651983
-0.0004175730200700408
-0.00031650153642237035
-0.0001950011261710393
-9.143475354875401e-05
-2.7818665552872035e-05
-3.2503277625478962e-06
2.708089935699929e-11
2.72772947408719e-06
1.6101218876840823e-05
3.714483304319281e-05
5.389009429225483e-05
5.570270576200257e-05
4.150052029047806e-05
2.0441393918864365e-05
4.8152033644909284e-06
6.4384123660022e-08
-1.115392974351757e-06
-1.6047259313377954e-05
-6.157911237354699e-05
-0.00014181450372161074
-0.00024170146746976852
-0.0003311019341945812
-0.00037797773447822004
-0.00036390279266491834
-0.000294220999363486
-0.00019687453716807536
-0.00010479289593738951
-3.998689969637805e-05
-8.125231982410818e-06
-1.738920554304486e-07
6.515616552154111e-07
1.0567408417000168e-05
3.8279222419967525e-05
8.403555339185253e-05
0.00014578900324531993
0.00022004980872077082
0.0002575078047553467
0.00017468596151447494
9.891959463205207e-05
4.151800272635528e-05
9.27056171609466e-06
1.8601005070259562e-07
-1.2172654220874292e-06
-2.061549850763412e-05
-8.37746063801786e-05
-0.00020445552304750993
-0.000374912093761669
-0.000564243425983286
-0.0007265383657533197
-0.0008183144720377149
-0.0008172174439259735
-0.0007285912458583352
-0.0005808846746522997
-0.0004131694412984214
-0.00026066418094436097
-0.0001446319139453407
-6.994135972844544e-05
-2.9388778271787708e-05
-1.097971922555866e-05
-4.0334310532592955e-06
-1.8944088208917002e-06
-1.6525994008539683e-06
-2.9101867983200216e-06
-7.447181721401508e-06
-2.0046126971627657e-05
-4.903274572946288e-05
-0.00010459628480079344
-0.00019416490072977403
-0.000316343118872036
-0.00045669734989022546
-0.0005886292474867826
-0.0006804015695623663
-0.0007061241642084498
-0.0006560171837818421
-0.0005415999443286836
-0.0003930855688334355
-0.0002458742926973999
-0.0001272360693855175
-4.999790652899465e-05
-1.2002318670007896e-05
-7.467748567750208e-07
6.575239802193456e-08
4.056958159992575e-06
1.846827772244711e-05
4.5054914420091296e-05
8.194020023952734e-05
0.00012296369897603576
7.617362197972822e-05
3.602652464745664e-05
1.0243481394369313e-05
6.4353881884249e-07
-2.015596771618283e-07
-9.605784284635402e-06
-5.0405433359861535e-05
-0.00014270354639525821
-0.00029468208051023736
-0.0004960789665889312
-0.0007179569299743156
-0.0009202288985168958
-0.0010642032559830905
-0.0011243960425372714
-0.0010951882792370972
-0.0009905663308698665
-0.0008377244881668614
-0.0006676917741497081
-0.0005068335841115472
-0.0003719496453471429
-0.0002696547385909391
-0.00019892054543721511
-0.00015485359521418395
-0.00013205352390504682
-0.00012677338676746896
-0.00013788889908201166
-0.0001669893230533136
-0.00021771345519808048
-0.0002941870803081227
-0.00039845883131299514
-0.0005273706688831024
-0.0006700406568409825
-0.0008074937667638147
-0.0009155445142043795
-0.0009707010383705294
-0.0009573186528073209
-0.0008732431214708892
-0.000731558214873825
-0.0005575621736022
-0.00038136966130870794
-0.00022904175252060367
-0.00011622553740719416
-4.620450990035737e-05
-1.206447185250048e-05
-1.1369352079764958e-06
1.7082385846231993e-09
1.5862621747378046e-06
9.01928429422465e-06
2.32768891447615e-05
)
;

boundaryField
{
    "(inlet|outlet)"
    {
        type            zeroGradient;
    }
        "(front|back)"
        {
            type            empty;
        }
    "(top|hills)"
    {
     	type            zeroGradient;
    }
}

