/*--------------------------------*- C++ -*----------------------------------*\
| =========                 |                                                 |
| \\      /  F ield         | OpenFOAM: The Open Source CFD Toolbox           |
|  \\    /   O peration     | Version:  v1806                                 |
|   \\  /    A nd           | Web:      www.OpenFOAM.com                      |
|    \\/     M anipulation  |                                                 |
\*---------------------------------------------------------------------------*/
FoamFile
{
version     2.0;
format      ascii;
class       volScalarField;
location    "0";
object      nutCoeffs44;
}
// * * * * * * * * * * * * * * * * * * * * * * * * * * * * * * * * * * * * * //
dimensions      [0 0 0 0 0 0 0];

internalField   nonuniform List<scalar> 
1000
(
0.002093368526657355
0.001962322426291705
0.0014376056384221181
0.0008630642064147149
0.00046636223325732665
0.00024257752774425463
0.0001285768755661249
7.3366335518883e-05
4.669343499157262e-05
3.307797136717332e-05
2.576398685177734e-05
2.1986588844749327e-05
1.978544286974269e-05
1.819029604682503e-05
1.7214568833847963e-05
1.6983115143700567e-05
1.762191278000232e-05
1.929547958151608e-05
2.22329804210335e-05
2.6735773898073254e-05
3.315476578621559e-05
4.1826305914189606e-05
5.2955309817419e-05
6.645356926589984e-05
8.176113951763318e-05
9.771433268285008e-05
0.0001125440830046546
0.00012407409855584546
0.00013013733840520198
0.00012913137156580552
0.00012054054698879488
0.00010521814147301738
8.528100978671487e-05
6.361223176361297e-05
4.313206440875469e-05
2.6098811504815253e-05
1.3675267627888631e-05
5.876024025486402e-06
1.808573838620844e-06
1.986417975925977e-07
-1.272487264598167e-08
-2.6144006459727695e-06
-2.566999383177994e-05
-0.00011973866445778495
-0.00037160738437310917
-0.0008780921270578167
-0.0016776868113478084
-0.0026210286093910472
-0.0032863893744219277
-0.003347172671583183
0.0028777757834368613
0.002711481508785419
0.002066947029380391
0.0013226252907059758
0.0007593203906151041
0.00040752427603513733
0.0002123132727667816
0.0001132641051142267
6.590298113984043e-05
4.320298926818828e-05
3.1417313998322034e-05
2.4224895058836672e-05
1.8760541797559196e-05
1.4555960637982561e-05
1.1647543332065053e-05
9.91462109594232e-06
9.235746017709005e-06
9.580545954236748e-06
1.107001136361003e-05
1.4010930681180129e-05
1.8898785056741465e-05
2.636593678146731e-05
3.704335907759046e-05
5.1320009921042445e-05
6.902453884064327e-05
8.911667524924352e-05
0.00010953082638284275
0.0001273174395540986
0.00013916936744607294
0.00014225998517755414
0.00013515669254311296
0.00011845415539116901
9.481855953238929e-05
6.833884267484987e-05
4.338015985288815e-05
2.3367947008549455e-05
9.956147572992948e-06
2.859967483102919e-06
3.0375469026653747e-07
-6.414949681597412e-09
-2.3021182012649013e-06
-2.287928541381921e-05
-0.00010786790537555249
-0.0003387797968646502
-0.0008025470590187844
-0.0015448856255900383
-0.0025136155723694473
-0.003495221345870143
-0.004124560195996643
-0.004162282388807545
0.0037588216244824465
0.003556732538343694
0.0028048643056363775
0.0018991899634194145
0.0011577330159758096
0.000649508409969644
0.00034132727657168064
0.0001739357992881577
9.110056356926793e-05
5.1570534343961015e-05
3.1454700133271583e-05
1.919038020930259e-05
1.0639004686290506e-05
5.312438380927153e-06
2.4654200053001323e-06
1.132127572297839e-06
5.88830807298318e-07
4.24768448335288e-07
4.91083046827908e-07
8.543687452528863e-07
1.8316709623234204e-06
4.0828853637132355e-06
8.646197926235043e-06
1.6777279096473812e-05
2.951746142325836e-05
4.7058201513657726e-05
6.813637295922245e-05
8.979152121487639e-05
0.00010777247783238698
0.00011764426883913295
0.0001162962260202426
0.0001032598331954332
8.119168691862074e-05
5.517221447874332e-05
3.100123350937342e-05
1.3173043308434419e-05
3.388163407172439e-06
2.1553366037046684e-07
-3.793674616543963e-08
-2.939505141064385e-06
-2.3495719628082772e-05
-0.00010210281075593256
-0.0003133706313689667
-0.0007399670274803505
-0.0014220384379727677
-0.002327871320707735
-0.003337287172477075
-0.004242830726976117
-0.0047946843738454975
-0.00482988266407963
0.004687501014067416
0.004452030972597586
0.0036121995445888336
0.002564529895776511
0.0016477825194686976
0.0009670862582025863
0.0005196787587613588
0.0002589310194467633
0.0001234784310128511
5.819422143298348e-05
2.6624255585165612e-05
1.0259929629047106e-05
2.432349495507911e-06
1.6611914298541224e-07
-3.846222395848793e-09
-4.013775206229762e-07
-1.576284451456031e-06
-2.8301737041521554e-06
-3.234200422921864e-06
-2.4933142012520957e-06
-1.174935921461196e-06
-2.1101205831177518e-07
-7.387411199235277e-14
3.181109190631894e-07
2.8823662042142976e-06
1.0228220103862949e-05
2.3797978401845052e-05
4.2565017112772764e-05
6.261180248829762e-05
7.815060485722774e-05
8.376929180903923e-05
7.69415617957366e-05
5.950384900982555e-05
3.71679571628661e-05
1.7083890438727017e-05
4.51644337950529e-06
2.2997868305193488e-07
-1.2270350376365739e-07
-4.54213525837718e-06
-2.6717694791153842e-05
-0.00010036140846126715
-0.0002883223987874441
-0.0006669100397079662
-0.001278598378499958
-0.002098920493664681
-0.0030410565034216424
-0.003969796622871525
-0.004736446180259031
-0.005211389409914995
-0.00527468097235646
0.00560383700331144
0.005341812816860493
0.004440163359776052
0.0032777485229210416
0.002198827463325677
0.0013415832863094344
0.0007385111935117407
0.00036449719623839487
0.00016095118192558042
6.24029174539285e-05
1.9114237117667786e-05
2.950738524909981e-06
5.033413596653325e-09
-1.1241519328578687e-06
-9.587605588763828e-06
-2.786209428637336e-05
-5.1475037409991125e-05
-7.196274658825018e-05
-8.136951802261548e-05
-7.613594844246313e-05
-5.86498152481673e-05
-3.588202572474909e-05
-1.589280238023867e-05
-3.94957359952808e-06
-1.7057621037129774e-07
1.256902524523821e-07
3.5075175709399638e-06
1.4431274700193945e-05
3.2303984151630726e-05
5.132563942141861e-05
6.339778809889397e-05
6.264327778962689e-05
4.899325418955334e-05
2.8614170943159263e-05
1.0585710487971681e-05
1.3727421700853367e-06
-2.812872105725174e-09
-3.3790436969122717e-06
-2.5021216619855743e-05
-9.040094319076475e-05
-0.00024819987962008874
-0.0005616039294898978
-0.0010754202330426933
-0.0017816870167579918
-0.002619284146091395
-0.00349091340662652
-0.004285419521268881
-0.004922242662976732
-0.005356066813654459
-0.00547679354462894
0.006440150870385944
0.006163260620631021
0.005233095220457043
0.003991532412504973
0.0027722878440885616
0.0017441775794239881
0.0009790189629718896
0.00047998728901776206
0.00019832829918532617
6.306557056409499e-05
1.1347817729965797e-05
1.5293437706430637e-07
-1.7271555383763753e-06
-2.3236787866798612e-05
-8.140690169855019e-05
-0.00017327044234577364
-0.00027745880579760633
-0.0003634287981389201
-0.00040423024865364574
-0.00038741287145568025
-0.0003196262098835304
-0.00022326003673633752
-0.00012687986170077146
-5.3771789812058146e-05
-1.3627875101046362e-05
-8.559073053889289e-07
9.532584791625864e-08
5.3078782348190005e-06
2.2732401945939205e-05
4.8701870489241866e-05
7.127490620875336e-05
7.833307065361701e-05
6.56318993316714e-05
3.9909450010507564e-05
1.4843358011211619e-05
1.735864577940221e-06
-2.3530188056658702e-08
-7.219083101599867e-06
-4.9113775756764865e-05
-0.0001624696448340941
-0.0003944196940709319
-0.0007853433147773985
-0.0013427575459534881
-0.0020362064339015215
-0.0028080838217528527
-0.003577883271305497
-0.004264881936427454
-0.004833710144632699
-0.005275996805510862
-0.005472012254846846
0.007126839365063011
0.006850026586452273
0.005929710605125289
0.0046537145582275135
0.0033271384482820463
0.0021446352505689625
0.0012208533084415117
0.0005936330886174745
0.0002306462212874955
6.0091137172513485e-05
5.334215318437016e-06
-8.078229456356057e-08
-1.7977324565478613e-05
-0.00010301862577887916
-0.00027835111972571337
-0.0005242932474788997
-0.0007848754839470192
-0.0009889234297963182
-0.0010772032896837081
-0.001024766176999683
-0.0008496882702461408
-0.0006050358139117772
-0.000357816518453584
-0.00016389754019093203
-4.93667453417281e-05
-5.717105702598686e-06
2.404653117971614e-10
5.6083661698745945e-06
3.451955562509692e-05
8.593261747877303e-05
0.00013875729480110737
0.00016640334152788708
0.0001538858180236754
0.00010750595538272757
5.135772125802208e-05
1.212559424781745e-05
1.8341474945959385e-07
-2.645902181720956e-06
-4.091778805314119e-05
-0.00016544701618000204
-0.0004135371101663379
-0.0008009277723187301
-0.0013179843267925161
-0.001942148002158269
-0.0026373284121214533
-0.0033417801951877908
-0.003992328863538146
-0.004568319026347833
-0.005060395978411227
-0.005333406696219971
0.007602259119330151
0.007340426707891967
0.006467548205221823
0.005207378677550655
0.0038191676610041477
0.0025133823721066747
0.0014470422838044387
0.0006977835177022715
0.0002564738011728352
5.516898641164972e-05
1.9091463665091497e-06
-2.4836753739911496e-06
-6.06124094039198e-05
-0.00025458431103964486
-0.0006065948555556459
-0.001066585294996283
-0.0015279481052832692
-0.0018658644875234967
-0.001983479424955497
-0.001847839538768208
-0.0015014773185180058
-0.0010452847668811374
-0.0005999392111097234
-0.0002617950657435541
-7.122601950226707e-05
-5.803636980242826e-06
1.4271382326906707e-07
1.9455016670608246e-05
9.649021029028427e-05
0.00022811595255642353
0.00036945993563415337
0.0004605490696661975
0.0004598000273222229
0.0003670561407452207
0.00022410386157430118
9.206324817647278e-05
1.68296595418986e-05
3.0929146228850785e-08
-9.109351892701954e-06
-8.587990349454312e-05
-0.0002772067567762236
-0.0005942561556761967
-0.001030920698468717
-0.0015818486277278676
-0.002229750076721713
-0.0029243574381286235
-0.0036059305743966884
-0.00424507224972663
-0.0048077971602152976
-0.0051446879779626685
0.00782430904411908
0.007588910716402019
0.006793103149621235
0.005595974864796433
0.004200029386868221
0.002817725104613445
0.0016410088731642937
0.000787717905942505
0.00027723558912862205
5.058758216331975e-05
5.198018123026683e-07
-9.556415719787736e-06
-0.00012410002611181305
-0.00044639077522180533
-0.0009884096630942336
-0.0016607341680524286
-0.002301032518917236
-0.0027321496542408743
-0.002827716548896528
-0.0025597023213524235
-0.002008959014203089
-0.0013343012463083003
-0.0007124403826405499
-0.00027295816741648574
-5.471462221734975e-05
-9.814572720523537e-07
5.645752430553176e-06
8.442525146189462e-05
0.0002997579568728995
0.0006314857988112316
0.0009850189047826863
0.0012361765680833367
0.0012897712539988407
0.0011246255866466822
0.0008038368951887837
0.00044530671269713245
0.00016612156175980098
2.6625656846381207e-05
1.8923252479374582e-08
-1.319125292356649e-05
-0.0001047767677312755
-0.0003146634643778952
-0.0006565137204551602
-0.0011419386978612958
-0.0017670749078627414
-0.0024880669019341868
-0.0032390338406673384
-0.003966649496742213
-0.004599271736013306
-0.004976647842243487
0.007777927074685574
0.007575199035272182
0.006873839866355994
0.0057751918806452545
0.004423765311186897
0.003021346225299662
0.0017816492321755277
0.0008560646298261231
0.0002931984180464142
4.7456250208416344e-05
1.150219618002692e-07
-1.9097283180116448e-05
-0.00018817209789420735
-0.0006212477025626775
-0.0013138361433965027
-0.0021378684359552925
-0.0028840983139552787
-0.0033381088598297853
-0.0033611628636899295
-0.002944182657470018
-0.0022126704616648716
-0.0013794964040415943
-0.0006635639990726094
-0.00020671439155188812
-2.278328769215827e-05
4.902667315180899e-08
4.4270783858880346e-05
0.00027814121882283407
0.0007765766119965666
0.001481626582135525
0.0022200112440843036
0.0027711316878938456
0.002956997341047468
0.0027158818603118424
0.0021279316409857385
0.0013817452432934153
0.0006963841908340416
0.00023253380931273683
3.1716870277762465e-05
1.1921913284570873e-08
-1.4672203002508564e-05
-0.00011547454582504423
-0.00035818682945083113
-0.000779625932428826
-0.0013908325887367489
-0.0021520617878794538
-0.002984108066834943
-0.0037996674855093606
-0.004484295656812902
-0.004872743599849785
0.007474314065024959
0.007305745819116751
0.0067046797890761055
0.005725008449242169
0.004460032776721598
0.003093197289245602
0.0018457227506103262
0.0008906656463643744
0.00030069177367574
4.503950946673878e-05
2.1363850346092382e-08
-2.7535138289735305e-05
-0.00023606813801093856
-0.0007413227565949802
-0.0015215833388817464
-0.002419215869421028
-0.0031949946527767684
-0.0036169005462293857
-0.0035497306922846424
-0.0030099458733829454
-0.0021623812363467036
-0.001257946455289539
-0.0005355318768268004
-0.00012698388148330285
-4.494198774345854e-06
6.375458575884907e-06
0.00015113576478578244
0.0006375135320372695
0.0015374204484309558
0.0027408543799864855
0.003982711668222772
0.004934040070504938
0.005322479196924081
0.005034167765272069
0.004156199102771428
0.002942746749963464
0.001719129019887743
0.0007628717828191358
0.00021255789450607237
2.10179318352363e-05
-2.0093787811270137e-08
-2.9666713836899395e-05
-0.00018918894256354598
-0.0005573748914207779
-0.0011657993311477964
-0.0019755098117745064
-0.0028864684855806613
-0.0037715035460662454
-0.004476989140195993
-0.004843593771067925
0.006943309306584573
0.006807438850511352
0.006305080157078555
0.00545315832265107
0.004304151389013613
0.0030202379759888673
0.0018183622501381847
0.0008803127926789396
0.0002940830116137098
4.1563746665198496e-05
1.7641136574764978e-09
-3.380658185598599e-05
-0.00026562758686620407
-0.0008066380583389069
-0.0016212284744196073
-0.0025344818349031352
-0.0032942110964063204
-0.003666210062263004
-0.003526490020427276
-0.0029134936527692484
-0.0020172372445763417
-0.00110672135648904
-0.0004223201577113779
-7.585348115319294e-05
-3.112094383090825e-07
2.7171164435647795e-05
0.0002946409246966795
0.0010308249333043288
0.0022962196546361057
0.003934987643925947
0.005609840117171654
0.006909743479862076
0.007490561921893031
0.007195574681738375
0.006109731451350801
0.0045275168438500425
0.0028478587230492754
0.0014373121126803564
0.0005167639407412395
9.872892015309552e-05
2.082524631978927e-06
-7.121339393402449e-06
-0.00012128488603651686
-0.00046984544041686453
-0.001103366227870484
-0.0019741860728943158
-0.0029529835425105857
-0.0038732680748942857
-0.004557084454343086
-0.004867346609102235
0.006225001331385277
0.006119204821497258
0.005710491427652187
0.004988679754395072
0.003975952067098048
0.002812445594573499
0.001701787293728855
0.0008231794309754145
0.000271018974631271
3.594053716800948e-05
-5.492037568801682e-11
-3.876310697072877e-05
-0.0002822129298533222
-0.000833099033975186
-0.0016470274404791847
-0.002543811540198569
-0.0032720938523667044
-0.0036047833425526987
-0.003429089868377265
-0.002794871503598139
-0.0018995568133401356
-0.001012360491270184
-0.0003656293134591231
-5.642504684082955e-05
-1.3574301439387321e-08
4.224287171402335e-05
0.0003676364911556424
0.001204798140047751
0.0026045345001279177
0.004393825660872176
0.006214263740036313
0.007633460704065909
0.00828883700206198
0.008010585707687059
0.00687811056169573
0.005189886828945688
0.003359627626952628
0.0017786045760431017
0.0006953976569550912
0.00015479629477688494
6.055413569139709e-06
-4.390207821232796e-06
-0.00011878381523906697
-0.0004999878864771716
-0.0011975728832635645
-0.0021380590486684047
-0.0031575148822571247
-0.004061368564597991
-0.004672846885154504
-0.004894556751122022
0.00536598421666618
0.005287466787186163
0.0049655959182593416
0.004372775730681137
0.0035106041074870736
0.002496679915895167
0.0015137507807794575
0.0007288569322993426
0.00023521016773449458
2.886550600352386e-05
-8.885425924632861e-09
-4.241040121785776e-05
-0.0002865263536618568
-0.0008239632513348559
-0.0016074031526654136
-0.0024632060995816484
-0.003153289565034722
-0.003464733008720788
-0.0032933618460784632
-0.002687865450054099
-0.0018347752302735857
-0.0009873661932705332
-0.0003646265576909059
-6.027625618891399e-05
-7.811896840958444e-08
3.2236041268502255e-05
0.00030747570097730396
0.0010347312688805752
0.002262396654685183
0.0038371643906379787
0.005439641623876814
0.006685247701786066
0.007253238252693616
0.006995861147856319
0.005987251067026586
0.004495057173965565
0.002886971859413501
0.0015081483249526134
0.0005721998169688965
0.0001138403533545761
1.9860463210321486e-06
-1.18483210276945e-05
-0.0001773186409228931
-0.0006468840876317255
-0.001435772796298338
-0.0024300854101298314
-0.0034376077525214836
-0.004259244690141781
-0.004748719554498634
-0.004859008161043166
0.004420746860108445
0.004366653405778925
0.004122974357433518
0.0036543579077669523
0.0029508990699476084
0.002107383556387325
0.001279175040549652
0.0006128202009974777
0.00019393615139744782
2.2075582537176515e-05
-4.050948437318164e-08
-4.2652613041055044e-05
-0.0002710869090808993
-0.0007637029379717423
-0.0014766685710472906
-0.002255404405632285
-0.0028887465703651837
-0.0031868844045869803
-0.003054084944561611
-0.0025276269963342237
-0.0017662340954354941
-0.0009905193594577676
-0.0003974649295925069
-8.250783107774989e-05
-1.3423641799001987e-06
1.1447757913413286e-05
0.00017249981807863305
0.0006554302409262047
0.001510008049998638
0.002628022558263135
0.003770852212304543
0.004649258641673759
0.005024893045616727
0.004794797085662038
0.004026821063425913
0.0029334413596643007
0.0017951876470944112
0.0008635194284501082
0.0002773340274509438
3.340699671894006e-05
-1.3681717889351806e-08
-4.865083572654622e-05
-0.0003204516709171631
-0.0009108621062832413
-0.0017781190410916649
-0.002771636285624678
-0.003693063580818593
-0.0043679974053509206
-0.004701731278914921
-0.004695322663071429
0.0034534880511735266
0.0034205532076974654
0.003244202709387398
0.002890090420462459
0.0023450472889970393
0.0016817403080073262
0.0010235947990068811
0.0004900648723586274
0.0001538047780528718
1.689284278164666e-05
-5.5488427416590855e-08
-3.680223931539003e-05
-0.00022780073148650565
-0.0006368014520028724
-0.0012295393657285353
-0.0018822938009789045
-0.0024244365372432545
-0.0026999062082664676
-0.0026250834243646813
-0.0022209326157278148
-0.0016063362249257847
-0.0009542204780066344
-0.0004268332171208358
-0.00011531473135479294
-7.755520905564884e-06
1.0091635239626535e-06
6.131284857298727e-05
0.00030151081650575456
0.0007691874627950086
0.0014050587790653743
0.0020607198618896277
0.002553374825165368
0.0027355466449831864
0.0025516988019794475
0.0020591732529945676
0.0014055027996461745
0.0007716837598729814
0.00030422958943978403
6.171780787896566e-05
7.566900702059291e-07
-1.1627974304875867e-05
-0.00015533282458345503
-0.000561626045779984
-0.0012503340891207738
-0.0021304317361619547
-0.0030397720652686907
-0.003802964942460963
-0.00429168232244891
-0.004465869582909662
-0.004359789910512191
0.0025346678384305685
0.002518773775021114
0.002397107068014268
0.002142719653685197
0.0017454726399607713
0.0012580484585917892
0.000770646886075143
0.00037213943727783846
0.00011854151709678878
1.3654144217443963e-05
-1.9782630798727185e-08
-2.5044890848483265e-05
-0.00016046326757853877
-0.00045519039679550234
-0.0008883056776368968
-0.0013739350969635838
-0.0017903418968078287
-0.002022787632884291
-0.0020046965552135408
-0.0017418096304082442
-0.001310057515540976
-0.0008277724649814427
-0.00041274234546965593
-0.00014064097673043634
-2.1001962442787794e-05
-1.3184059181835228e-08
1.136387163825444e-05
9.580070927172288e-05
0.0002919779066664793
0.0005767346977239498
0.0008744142567842992
0.0010892603383125233
0.0011467508154985966
0.001025966193395066
0.0007689220147533443
0.00046275025534972937
0.00020224520921024823
4.8598344357961835e-05
1.550354453261874e-06
-3.663727564746344e-06
-8.088540682462055e-05
-0.0003451323974601529
-0.0008481609232702043
-0.0015529626320174052
-0.0023510855133265507
-0.0030996355977656793
-0.003666119863962395
-0.003971744357279046
-0.004016290592022481
-0.0038468471758372337
0.0017301506060671485
0.0017262678360629587
0.0016461172746976022
0.0014730248651707667
0.0012031004317562275
0.000872356373467905
0.0005404664682941455
0.00026653902866747496
8.890598369404623e-05
1.193783138962657e-05
-5.238143065127543e-13
-1.2121925261697873e-05
-8.905253303085311e-05
-0.00026573827309552467
-0.0005341355385669814
-0.0008447075890076002
-0.0011230242433058887
-0.0012955008659829388
-0.0013151082464023752
-0.0011776744563640703
-0.0009228318072360351
-0.0006193781915848978
-0.0003407451181041725
-0.00013999022408375925
-3.385858371407324e-05
-1.7683651850682125e-06
4.826669951341137e-07
1.8519431606478073e-05
7.838937931192453e-05
0.00017580077539013254
0.0002800316624557262
0.00035032167239603957
0.00035681718701572885
0.00029601687514484295
0.00019311560747573288
8.971602388304639e-05
2.2211621286432174e-05
6.275705340905839e-07
-2.2479306681291475e-06
-4.7267177294702736e-05
-0.00021055803545132253
-0.0005455307370153708
-0.0010516278550619313
-0.0016720245500546384
-0.002312456295367005
-0.002867176051740884
-0.0032485883140012384
-0.0034147617279502817
-0.0033823583226117574
-0.0031942453085824457
0.0010866741401525297
0.001089479872818323
0.0010387177785172153
0.0009273423635437403
0.0007575920606702031
0.0005526698132544089
0.00034776677916231253
0.00017725887010738346
6.37621925850808e-05
1.0838316811123929e-05
3.970844806815926e-08
-3.5891408424476724e-06
-3.648301291737685e-05
-0.00012116327607371168
-0.0002579488347233952
-0.0004243134925795616
-0.0005823512360770009
-0.000691751401893565
-0.0007236673127887523
-0.0006704916575708031
-0.000548036863523363
-0.0003894630442490075
-0.00023342200551679208
-0.00011102479274381784
-3.660410867682905e-05
-5.611536257075859e-06
-1.7198739153531842e-08
1.5397013257485038e-06
1.3548426635509842e-05
3.7939505526876914e-05
6.526281005612954e-05
8.173378466817356e-05
7.822736402320854e-05
5.627267323676373e-05
2.753560610084229e-05
6.563307995578682e-06
8.441374822047912e-08
-1.8115587449372225e-06
-2.7865071972662437e-05
-0.00011956714197019701
-0.0003158453533910659
-0.0006323665591239116
-0.0010509168449438456
-0.0015233154675253604
-0.0019836453234429205
-0.002363337114332794
-0.0026087385196747496
-0.0026969336160429782
-0.0026422390977361783
-0.002474399906742933
0.0006210979797446005
0.0006260547836646353
0.0005948636437316311
0.0005271373968670189
0.000428808341120703
0.0003139426770283725
0.0002007801459460081
0.0001064062706349915
4.192071089635297e-05
9.241856309159348e-06
2.8848680621723734e-07
-4.796672842241091e-07
-1.028134112703302e-05
-4.151632469212829e-05
-9.729460589334765e-05
-0.00017016210653623783
-0.0002445193348647585
-0.0003019396944092709
-0.000327509886385549
-0.00031489525201382803
-0.0002683042801007895
-0.0002006977407289001
-0.00012902532518976298
-6.840382368293752e-05
-2.7504849778327427e-05
-6.859038319192808e-06
-5.07927991134345e-07
1.1170934575871183e-08
1.3417682864274121e-06
5.6923158281203404e-06
1.1029115580646635e-05
1.3674756558329725e-05
1.1591761512603709e-05
6.213714107105975e-06
1.4422250169926504e-06
4.468698080631878e-09
-1.0505957986366752e-06
-1.3202666548038013e-05
-5.567736815612747e-05
-0.0001504758785267174
-0.00031399460653180536
-0.0005488511421167218
-0.0008403027728151424
-0.0011582287364023305
-0.0014630490535655282
-0.0017139186728072906
-0.001878102447594744
-0.0019389258434187805
-0.001899246664013152
-0.001774282929771889
)
;

boundaryField
{
    "(inlet|outlet)"
    {
        type            zeroGradient;
    }
        "(front|back)"
        {
            type            empty;
        }
    "(top|hills)"
    {
     	type            zeroGradient;
    }
}

