/*--------------------------------*- C++ -*----------------------------------*\
| =========                 |                                                 |
| \\      /  F ield         | OpenFOAM: The Open Source CFD Toolbox           |
|  \\    /   O peration     | Version:  v1806                                 |
|   \\  /    A nd           | Web:      www.OpenFOAM.com                      |
|    \\/     M anipulation  |                                                 |
\*---------------------------------------------------------------------------*/
FoamFile
{
version     2.0;
format      ascii;
class       volScalarField;
location    "0";
object      nutCoeffs28;
}
// * * * * * * * * * * * * * * * * * * * * * * * * * * * * * * * * * * * * * //
dimensions      [0 0 0 0 0 0 0];

internalField   nonuniform List<scalar> 
1000
(
0.0001239572020558173
9.973838206766805e-06
0.0012830033722944503
0.006302849539405494
0.014489605245788907
0.023027785022885664
0.029239182474380582
0.03156101085674106
0.030073238184357448
0.026440492562323517
0.022600103831473727
0.01953849924819706
0.016706053471997617
0.013418223780637655
0.009844295927969154
0.006379424951348994
0.003415573445079068
0.0012767151840797843
0.00016004982252152333
9.624855074318252e-05
0.0009393789804661194
0.0023913012880765866
0.004057657895017689
0.00552523847777798
0.006444699881282573
0.006601244726778402
0.005958306716724311
0.004664951065932427
0.0030258214101957243
0.0014399263297713513
0.0003212390647579728
1.7082589206308472e-05
0.0007410278920971585
0.002532981979277749
0.005253809796840508
0.008613614354704983
0.012226243588863105
0.01567702347990954
0.01877765193298163
0.022280903514830586
0.026863350032752854
0.03156731482499548
0.034268303933862994
0.03285416963820351
0.02681044163137087
0.01757826088012744
0.008143331471502686
0.0019647679547871153
9.408081258882103e-05
2.8220984590401066e-05
0.0017472283757112143
0.0009515744625898404
2.041692785045674e-06
0.0017397103419636289
0.007495515094221782
0.015795511349630757
0.024130194748451968
0.030134307801352112
0.03242656504588706
0.03135469400706726
0.02844760249301925
0.024999407780398622
0.021090855160562652
0.01654742046502763
0.011751203693228593
0.007243702731410745
0.0035438328745219356
0.0010626154434271093
2.8844777003617118e-05
0.00044182931600029654
0.0020636251563077874
0.004456011412250517
0.00705774831526292
0.009289077619550477
0.010662816871458784
0.010879873248409434
0.009889355115899421
0.007900600095568068
0.005344355568212085
0.002790600540952758
0.0008395163043794442
6.898335571834428e-06
0.0006274352189303061
0.002793875004969606
0.006343640857072778
0.010893115383030913
0.01591028699208525
0.020808646959454613
0.025172211611301815
0.029270268862309053
0.03311741628048894
0.03526827393296796
0.03381030116706833
0.027973388107538747
0.01900818009079552
0.00952708573190792
0.002543683162185668
2.1518181019327105e-05
0.0007086724489729405
0.0014508014282546711
0.004931090046519941
0.003968950757264782
0.0014983150837713213
3.4626728285092197e-07
0.0020509836453633493
0.007797909854864821
0.01573606112693372
0.023616398661838893
0.029150503348126824
0.031155125937813135
0.03002328252556983
0.026810335907963456
0.02229725088229435
0.017040999982838274
0.011637548339562329
0.006721735160604699
0.0028856186094561474
0.0005803535601348699
3.309164725886788e-05
0.0011967502329285522
0.0037459937399573276
0.007124616647534034
0.010638740241251166
0.013580734643361219
0.01536015086570857
0.015616339026355936
0.014289830677406249
0.0116373655298907
0.008187037784232387
0.004641437424971244
0.001747970525712737
0.0001609339467634573
0.0003230701880100913
0.002388501605924589
0.0062013881870807645
0.0113316300141266
0.01715770132865136
0.022977247335009974
0.02813300008098315
0.03210877898686086
0.03410052229136457
0.032766431854606516
0.027346385708780528
0.018872896544985293
0.009844083848068674
0.0029273899888822255
4.5004035319977816e-05
0.0012347428573986933
0.003716904275587321
0.004688572618056172
0.008851607670668902
0.008219907587707524
0.005305838250053097
0.00162272152057796
9.453874308785938e-08
0.0018441124681668089
0.006976994118161191
0.014055673122692252
0.02083506384255799
0.02510690030768265
0.025902480041106214
0.023551945714737125
0.01928439572629991
0.014293464286134738
0.009291162817148759
0.004905533082770945
0.0017107302117134865
0.0001294941409413936
0.00035181452561729686
0.0022875777014009398
0.005566105481891224
0.00958740263860164
0.013618841646673156
0.01692210073957518
0.018886113805595208
0.019140866224525876
0.017628973144193552
0.014620346785088006
0.010666281614528251
0.006501398948427955
0.0029122347840308486
0.0005970991226150764
4.482921759662234e-05
0.0014539488578488688
0.004707032699827883
0.009402215937617512
0.014932779400655155
0.02059635064202172
0.025592390462202717
0.028651180074576305
0.028381542694198285
0.024184406250262528
0.016879400153169147
0.008831451725576464
0.002653990683152247
4.076488127116907e-05
0.001357909949293895
0.0051278151117884205
0.00820865472334473
0.008854440638762555
0.01239274779123391
0.012424200989983784
0.010156814774509495
0.005929667707817649
0.0019183657546008605
3.176536047706949e-05
0.001153252887537981
0.005121088793499076
0.010563675945803125
0.015224381091126338
0.017234862524947783
0.016073682840524867
0.01293257010491011
0.009220771230183956
0.005596566113760052
0.0025685266384768307
0.0005963771093000458
9.178016527814801e-06
0.0009372712818979907
0.003273334337912626
0.0066736953239358784
0.010603796251146415
0.014422218458470875
0.017489701203206753
0.019282208534733263
0.019486552244356872
0.0180593598945654
0.01523749903329074
0.011497829341720287
0.007473878268139781
0.003845566018779912
0.001222209557764803
4.143030153919333e-05
0.0005009883735651215
0.002535473529149638
0.0058397107673763896
0.009932025219714055
0.014242751540097125
0.01801965790968482
0.019685316338732106
0.017816366809078447
0.01279762909114095
0.006589026932737754
0.0017585372879851487
9.191182157027444e-09
0.0016447604801293307
0.005789744405659262
0.01032613678356067
0.012793754288514245
0.01274441199631055
0.014486865128271305
0.015261669251538799
0.014388115590810737
0.011223451389607047
0.0067750927647051845
0.002689655660330456
0.0002990862410513952
0.0003405380446130735
0.002602533296912597
0.005660809871800266
0.007637632430339548
0.007486887761212437
0.00590326197020752
0.003976033496275306
0.00215101939818189
0.0007437513143890706
4.0460888079952996e-05
0.00024306664243208437
0.0014225308087455872
0.0034916957937252894
0.006205794313871305
0.009193641755737572
0.012015383185873306
0.014237058580894645
0.015507153938642753
0.01562011073655699
0.014554016182648647
0.012475150921068707
0.009708743836877086
0.006682242482528382
0.00385210934100107
0.0016276947017649208
0.00030637139341518704
3.042093189835446e-05
0.0007725999579485665
0.0023513985947927725
0.004471460571652396
0.0067802180365171515
0.008760677731733134
0.009151059549894272
0.007057353994577577
0.0035263339095373014
0.0006511867032342885
0.00014872768851909937
0.0024048469652520037
0.0066794989522112064
0.01150141920315122
0.015009837927683374
0.01601896690624565
0.015182450623818658
0.014469021914088966
0.015812925107086647
0.01652208146138129
0.015419147561605291
0.012322176094696049
0.00814022250986214
0.004049416538114863
0.0011214104688207418
1.2579897865289135e-05
0.0004431235678252504
0.0012824726209785457
0.0015121549016265069
0.0011668280044301316
0.0006927300252203039
0.0002690870916598435
2.199378437704451e-05
7.088906725097407e-05
0.0005022351509725527
0.0013457038856590046
0.0025590645786704893
0.004026619315501642
0.005573230139272897
0.006991987481044483
0.008080419202684094
0.008677387911453229
0.008692857789907135
0.008124315617509485
0.007056630709924486
0.005645989469978792
0.0040916357825470425
0.00260140628804135
0.0013575583289688001
0.0004892354291483958
5.56580158621439e-05
4.250581019645593e-05
0.00037121172242229417
0.000918642881896565
0.0015429417258018328
0.002028173734220331
0.0018175832430438379
0.0007749189858744414
5.5232737775228025e-06
0.0008540837222047022
0.0037736181705374373
0.008122258779717052
0.012712723048134967
0.016199614073770286
0.017523417750841177
0.016825818888590142
0.01538478031544635
0.012315628528612694
0.013882935584190268
0.015804142634646856
0.016864794773230055
0.016062800130948903
0.013485382649102984
0.009799893412264024
0.00590654300097717
0.002759348991008137
0.0009221347946189588
0.00021625348868614154
6.006110283554355e-05
4.2170849422319745e-05
5.0742049135966776e-05
7.978609836785528e-05
0.0001406776324416208
0.0002484528583250054
0.0004165719797387455
0.0006507694320669391
0.0009439538272343628
0.0012740615008593732
0.0016059810790167838
0.0018974074379844584
0.002107234566873091
0.002204251567982384
0.0021737971386687114
0.0020206891923998504
0.0017678120442475478
0.001450966328723476
0.0011114437659435967
0.0007882042769712903
0.0005113566097336462
0.00029820762743854517
0.0001523711129738365
6.579644427629375e-05
2.304549632199962e-05
6.6735405232629735e-06
2.4480542779783073e-06
6.345873727688807e-06
8.970142730161403e-05
0.0006627432662731962
0.0024225952857075176
0.005680686990579053
0.009897223920365815
0.014014411124577067
0.016981758325915357
0.01800705239879187
0.016957068805943984
0.01491665282539787
0.01323858971997607
0.008672264918296426
0.010082109578175596
0.012486203788205943
0.015002987452244099
0.016351000663508832
0.016023730908932405
0.014130803610029935
0.011143185306769957
0.007815930827775394
0.004969600177729918
0.0030590755402007865
0.002016917153431281
0.0014083194015215741
0.0009474415609206189
0.0005948991924185519
0.00034252530683341056
0.0001750937107775374
7.421887574001444e-05
2.169965659059833e-05
1.7604212528205095e-06
2.0702052803107783e-06
1.3740852870463838e-05
3.068188149379627e-05
4.870006551716501e-05
6.465289329580697e-05
7.587307847693018e-05
7.999588471161588e-05
7.525139599466589e-05
6.120024858962138e-05
3.978332244070101e-05
1.644704332671597e-05
1.0285756547018328e-06
8.08051412584462e-06
5.637733268912079e-05
0.0001674773367560313
0.00036335113400515364
0.0006632391154007154
0.0010800369399538883
0.0016560568327049043
0.0026819099367920655
0.004643348611567962
0.007688098737355538
0.011377645971259405
0.014799776742807287
0.0170585710050869
0.017574911235396663
0.016201250516930953
0.013496960346312512
0.010891107197158531
0.009383258819724143
0.004651051257685838
0.005626131029144874
0.007737593047628057
0.0105894732109902
0.013105613375566955
0.01455345593289131
0.014654002995599406
0.01344712655954035
0.011256392319839832
0.008673115544229837
0.006294832124817963
0.004402913157934206
0.002887908675508154
0.0016579345339756977
0.0007525430463181015
0.00020161457716610102
1.730106562522821e-06
0.0001198324852738932
0.0004993217973852939
0.0010673167069199614
0.0017420254541132458
0.0024395838778400528
0.0030800895150445307
0.003592963391762343
0.0039217177977309906
0.004028293636468658
0.0038968149857229748
0.0035363902771449436
0.002982367300700334
0.002295363669831397
0.0015575884287093614
0.0008662174805249948
0.0003242544350258139
2.9602173531642576e-05
6.365776907505229e-05
0.00048088217858795586
0.0013006877425679143
0.0025027844065985895
0.004052792238606677
0.006061997355533717
0.008678929909771614
0.011621343691924671
0.0142131832969374
0.015737908506614072
0.01577639362895648
0.014262709486958151
0.01151897591851493
0.008382933856967327
0.006068640323382644
0.00502935479032588
0.0014656556520639707
0.0019221794636915211
0.0032114783607470675
0.005370645047996957
0.0078067997318764
0.009893857362765155
0.01121460957290277
0.011537686201283369
0.010791705480583629
0.00915758905204864
0.007042313920144417
0.004856119642070875
0.0028904189078267422
0.001351937260172267
0.0003672932452199272
1.8497904777483936e-06
0.000263545830351661
0.0011031570966610212
0.0024198446923995886
0.004071097271308249
0.005885952239726212
0.007680411494281477
0.009273770920599568
0.010504927377208996
0.011247220966893174
0.01142087206197204
0.011001725820661468
0.010025352029834263
0.00858574480435704
0.006828259839073157
0.004936925712270448
0.0031169387235247376
0.0015739813359138344
0.0004923642776852906
1.4541472261225162e-05
0.00022467416145517156
0.0011382749727370618
0.002699440236620468
0.004781052752926468
0.0071837920074901505
0.009607277852186768
0.011571156019835669
0.012563593310555737
0.01232253452397806
0.010903694569157412
0.00858174995080955
0.0058561025577479825
0.003451946966878574
0.0020346588477966948
0.0015546770456332096
3.4575975300841716e-05
9.268995619773576e-05
0.0004346220823112375
0.0013567338261022942
0.0027842182342639643
0.004383438551419205
0.005810704318521348
0.0067679164207660415
0.006985312607383779
0.00633298744620638
0.004953505403466299
0.0032173728029356464
0.0016186855812938621
0.0005042512084341382
1.6029123117395228e-05
0.00021637928936989024
0.0011062391315382592
0.0026235373882125446
0.004647246720147694
0.007006864257828796
0.009496669242731189
0.011893778684393218
0.01397851700249083
0.015555368053786659
0.016472349913784635
0.01663681386572828
0.016025933720601147
0.014690540870649959
0.012751767126416453
0.01039049239316126
0.007830566828352934
0.00531691882825852
0.0030911376367072337
0.0013666190111433398
0.00030623104736363717
5.336783980735672e-06
0.0004820974632856143
0.0016765377182363969
0.003435555929190902
0.005394625010982654
0.0070111809810755555
0.007831494256506208
0.007646191836912677
0.006575457644038705
0.004934138756752472
0.0030911082462057714
0.0014642786497644584
0.0004390855941438089
7.947086274450013e-05
2.6430317618559945e-05
0.0006945783229457725
0.0006109717756270168
0.00026081688423436415
6.680382708355826e-06
0.000144190139550842
0.0006481523507011045
0.001354644300106952
0.0020545610559880977
0.002494539110085185
0.0024526405451013706
0.001899476261846493
0.001064049209282449
0.0003488847502681653
1.3268934138997874e-05
0.00014164294552759094
0.0007632803548368925
0.0018661361878958957
0.0033956658820905425
0.005256973638184109
0.007320565451395234
0.009431637342988455
0.011422594311806944
0.013127873979770834
0.01439977038378195
0.015123391139539786
0.01522906830197146
0.014700538499304453
0.01357787282094194
0.011954660007658383
0.009969688413784157
0.007793927094164503
0.005613895158047038
0.003613379157961763
0.0019550723242299874
0.0007643749543768567
0.00011726869523076821
3.377400959652479e-05
0.0004778758429129341
0.0013449713782592604
0.0023387751272920796
0.002999767727251051
0.003049736450755234
0.0025108906995224755
0.0016473079821685101
0.0007764385097964056
0.0001647035391690036
1.1167064083584058e-05
0.00033228727857466866
0.0007557054908991852
0.000841126572503988
0.0031221704888742146
0.0031777441759060594
0.0025987417896072926
0.0016752121099536975
0.0008507961882370882
0.0003027757626544819
4.182065217609022e-05
8.47318031431768e-06
9.227096163069196e-05
0.00015221740568225839
0.0001082702510949173
1.7428209866247522e-05
1.906552736974557e-05
0.00018261575080133325
0.0005224823161427038
0.001039139641012424
0.0017205303712746988
0.002541688152769469
0.003464903307112553
0.0044407874195717964
0.005410554979812581
0.006309771376225424
0.0070733939836715365
0.007641806800911905
0.007967002103126801
0.008018106985637978
0.007785396855184114
0.007282192385504058
0.006544304553467561
0.005627078423026349
0.0046003005738855275
0.003541489708401125
0.0025282875722180934
0.0016307523513000267
0.0009044578641940692
0.00038532989715334045
8.688784568384088e-05
3.5002951831503137e-07
9.280975685878254e-05
0.0002580032232225108
0.00031676682290708244
0.0002068098744798181
4.240198213666242e-05
1.9567051381772773e-05
0.0002931415770628476
0.000940250859106105
0.0019362075602524747
0.0030467568485923508
0.0037247687815409798
0.0036223148781858307
0.006482714688397992
0.006874057511613298
0.006509628277780808
0.005547804156579766
0.004384142848573145
0.0032513004337640294
0.0022582290653804828
0.0014673363117570456
0.0009194984197439995
0.0006089396001046655
0.0004845873145432453
0.00048674602872975526
0.0005415934939266421
0.0005985161575281105
0.0006500356267557088
0.0006974243955977455
0.0007426316543848428
0.0007877227767437202
0.0008343225599148907
0.0008831824725188387
0.0009338890306444669
0.0009847672329946304
0.0010329713117350093
0.0010747733345111755
0.0011060249612332511
0.0011227048890672573
0.001121507939553948
0.001100339894566342
0.0010586829792711941
0.0009977477852460637
0.000920412016504416
0.0008309296018567915
0.0007344506707362932
0.0006364102225565657
0.0005418819083706665
0.00045500574248604544
0.0003786044010264467
0.00031404834748784827
0.0002670892295164038
0.0002744331457663591
0.000400221715050351
0.0007251752303258541
0.001339259874693704
0.0022779726042749327
0.003500626772652015
0.0049156562470540005
0.006361218075846485
0.007528469558443923
0.007933694823657335
0.007401611541890345
0.009742945774772778
0.010520556544123679
0.010617725204690683
0.010065954216880287
0.009102342677410072
0.007899796809827404
0.006577203182606768
0.005248753491573562
0.004040644282041379
0.0030475357756568054
0.0022865810208002857
0.0017015425528866673
0.0011965382215660602
0.0007461603559810411
0.00038259148645546006
0.00013400449219600632
1.3172077949720875e-05
1.6153922469200496e-05
0.0001238263564462025
0.00030574489477385076
0.0005253763606759009
0.0007456001635281717
0.0009335470127967683
0.001064152758172392
0.001122203916520524
0.0011029417415468526
0.0010114726717389045
0.0008613104764864132
0.0006723544523996695
0.00046860533288525455
0.0002758261718715729
0.0001193672801044383
2.2253167375105107e-05
3.595881290161185e-06
7.729773715121923e-05
0.0002509631031408589
0.0005249413307034301
0.0008914962127415402
0.0013415571839563538
0.0019207426187809829
0.0027450534436331
0.0038934433397498957
0.0053601391081121025
0.0070338914595433535
0.008742069564825842
0.010307286608888374
0.011542978161231725
0.012211990749131157
0.012031304898242301
0.01099362051807836
0.012021997982016187
0.013094491444363922
0.013647831664713691
0.013623258594037211
0.013083598703342896
0.01209583486342952
0.010735264850520529
0.009109286979294941
0.007360694358379355
0.0056324348561579115
0.004027449319156867
0.0026028996614753464
0.0014029903898619544
0.0005210213183984022
5.611690439130978e-05
6.596896443889336e-05
0.000555629889013824
0.0014761683486829908
0.0027308458485148564
0.004187468206979274
0.00569466035348679
0.00709940557701474
0.00826344806896985
0.009076746578686042
0.009466882126728563
0.009404030431473519
0.008901585419465539
0.008012943253970785
0.006825072517549201
0.0054497230427438285
0.00401319609171858
0.00264545441741678
0.0014695689286599275
0.0005920194730155441
9.443033993059444e-05
2.7038383134879367e-05
0.000404145446790622
0.0012018616102683227
0.0023619902622638573
0.003833713927273879
0.005605959224660201
0.0076287995587844834
0.009774702927130792
0.011845221583455613
0.01362434100738149
0.014931605071193113
0.015633099694715734
0.01562695526107898
0.014849018943659269
0.013407248622943534
0.012845135551751626
0.01403678637015201
0.014854764165953849
0.015192356175193768
0.01498883362305134
0.014223399292129842
0.012922469081213294
0.011167377442956775
0.009089337237594157
0.006853631962681037
0.004645234941091332
0.0026606889142271445
0.0011074327399646388
0.00018667598750502016
4.571953250599974e-05
0.0007542685306026565
0.002293972515056101
0.004558133536582788
0.007362614649882025
0.010465866755255496
0.01359501273165291
0.016474205863545293
0.018851824057237333
0.020523814981263495
0.021351138762704655
0.02127038921936716
0.02029714882053074
0.018522388981667717
0.016102698932665884
0.013245450902225548
0.010190460922448756
0.007189445557767113
0.004485401073854256
0.002292815997551488
0.0007803914486350147
5.721735416326773e-05
0.0001633653169476713
0.001065736039557174
0.002659537038133189
0.004783383647688102
0.007252247067366016
0.009857412871229222
0.012368041192002466
0.014550711247189662
0.016200425463751274
0.01717282921253345
0.0174023511475737
0.016902229618431495
0.01575969342431584
0.01413589042982286
0.012214522259724206
0.01334155977655574
0.014175718470290918
0.01459893439493619
0.014503264529714077
0.013831058077960782
0.01258561052003126
0.010833386182943511
0.008698911505584671
0.006361895436059012
0.004055177151650012
0.002049666084974418
0.0006237774027997594
1.1096898884095733e-05
0.0003655937024408873
0.0017488701605402818
0.004120406249535094
0.0073385557813268575
0.011173405637895439
0.015329422956660628
0.019474598862814323
0.023272459865305208
0.026413382088062883
0.028642330380485023
0.02978064542407933
0.02974041124112392
0.02853057017724906
0.026254654184811193
0.023100613093123997
0.01932387275452925
0.015225271210288669
0.011125584922948389
0.007338977400924232
0.004147057900990697
0.0017756111050948053
0.0003757986232487884
1.1199806748263538e-05
0.0006522662308926828
0.002177625913793666
0.004376657194106554
0.006973564211557061
0.009672807723324009
0.012193509258851971
0.014295552119756036
0.01579443054555284
0.016576405482324887
0.016614551662103592
0.015971902164791524
0.014789209863686249
0.013231623266210484
0.01050140165117413
0.01143116187226686
0.012090389192251458
0.01237807597688461
0.012205607207322987
0.011527447431006869
0.010352267955832163
0.008747225992256488
0.006836588153572657
0.004798597011694367
0.0028571180694886705
0.001260949171807781
0.0002516465138559983
2.506808269458201e-05
0.0007078393945374143
0.002343665079776461
0.004884973991387173
0.008194416350470192
0.012056253288700306
0.016195912296327247
0.020305126577530887
0.024069907287570566
0.02719844316776155
0.029446548266016313
0.030638537689782336
0.03068187310748471
0.0295745539049175
0.027404728586007298
0.024342781160545366
0.020626492797103678
0.016540945060394222
0.012394603618154821
0.008493613436942521
0.005116287605270011
0.002489737392883644
0.0007705897096761269
3.162617822855954e-05
0.00025588972344712835
0.0013388037335469258
0.003094646942751059
0.005274592385720177
0.007604244344658263
0.009819403556481098
0.011694055579545786
0.013057549814753242
0.013806735146583024
0.013915102991042066
0.013432225844219832
0.012470920902037622
0.011168192818764789
)
;

boundaryField
{
    "(inlet|outlet)"
    {
        type            zeroGradient;
    }
        "(front|back)"
        {
            type            empty;
        }
    "(top|hills)"
    {
     	type            zeroGradient;
    }
}

