/*--------------------------------*- C++ -*----------------------------------*\
| =========                 |                                                 |
| \\      /  F ield         | OpenFOAM: The Open Source CFD Toolbox           |
|  \\    /   O peration     | Version:  v1806                                 |
|   \\  /    A nd           | Web:      www.OpenFOAM.com                      |
|    \\/     M anipulation  |                                                 |
\*---------------------------------------------------------------------------*/
FoamFile
{
version     2.0;
format      ascii;
class       volScalarField;
location    "0";
object      nutCoeffs45;
}
// * * * * * * * * * * * * * * * * * * * * * * * * * * * * * * * * * * * * * //
dimensions      [0 0 0 0 0 0 0];

internalField   nonuniform List<scalar> 
1000
(
1.3800907570632322e-06
-3.14987615202032e-08
-4.595594455926426e-05
-0.0005003862989189294
-0.0017441540092185087
-0.003494445323837114
-0.004999744811922991
-0.005606945786663598
-0.005215191869476205
-0.004299364954873535
-0.003397548395478939
-0.0027310949787004144
-0.002159289141020416
-0.0015543275532765243
-0.000976735540604675
-0.0005095329795980954
-0.0001996160431447294
-4.561850360331604e-05
-2.0248030919753207e-06
9.442593596116823e-07
2.879129883760232e-05
0.00011693686504432454
0.0002584717853750081
0.000410701738634408
0.0005173733408769126
0.0005363382249796822
0.0004599221052169719
0.00031861824322525136
0.00016644277094126663
5.463996463841434e-05
5.75761378230408e-06
-7.060420153953625e-08
-2.017213344669439e-05
-0.00012748178917709903
-0.00038081278370839984
-0.000799425754896754
-0.001351884430246831
-0.001962887517310487
-0.002573131177109643
-0.0033258234944918037
-0.004402914546097154
-0.005608625760096964
-0.006343645641989067
-0.005955054532887003
-0.004389913388543125
-0.00233057915830549
-0.0007348575650932805
-8.708972101271369e-05
-9.12539326430615e-07
1.4991954048795292e-07
7.303390315830536e-05
2.9353788960242462e-05
2.9173302220658447e-09
-7.256303144115621e-05
-0.0006489365335942036
-0.001985182942423539
-0.00374835953193331
-0.005231085638667065
-0.005839174032400461
-0.005552056157375906
-0.004798091284161801
-0.00395270661883114
-0.003062959707700302
-0.002128606840663785
-0.001273865369952331
-0.0006165111407904393
-0.00021096472744283948
-3.463890742396613e-05
-1.549176065968427e-07
9.28713573168111e-06
9.374459133000753e-05
0.0002974537453462112
0.0005929243013681281
0.0008952800104252027
0.0011010522423623482
0.0011348429230928587
0.0009834492609862265
0.0007022473669784342
0.00039069964540598917
0.00014741664095801213
2.4324487714648865e-05
1.811825949328874e-08
-1.5716409606573066e-05
-0.00014767618297423964
-0.0005052518139284681
-0.0011369154170651318
-0.002006859739048806
-0.003001689478927511
-0.003993760901878451
-0.00500772034152315
-0.006026770733886939
-0.006623328691556917
-0.00621689537928488
-0.004678618203944588
-0.0026206607664805413
-0.0009299082699041026
-0.00012829050739608704
-9.981787843368544e-08
1.8865500156012208e-05
5.526013756027586e-05
0.00034626962758778254
0.00025004234657595545
5.799689289880257e-05
-2.0375918206374084e-10
-9.288451033597095e-05
-0.0006886004711939516
-0.001973985921301717
-0.003629280264703158
-0.0049770165778147135
-0.005499133547108741
-0.0052022025737661496
-0.004389887422010168
-0.0033294843713936183
-0.002224552266180753
-0.00125542926140849
-0.0005510894482137627
-0.00015500952846320061
-1.3981023941064026e-05
1.903608255058603e-07
4.140047090891924e-05
0.00022927176320688402
0.0006013706825940256
0.0010973250859716243
0.0015826500481280403
0.0019036768208148239
0.0019515012924999253
0.0017082074994348559
0.001255399679957608
0.0007407816094678531
0.0003162122931170215
7.308044074954477e-05
2.041603930546289e-06
-5.8069130963619485e-06
-0.00011673156455824797
-0.0004883524563061063
-0.0012062534794458318
-0.0022474428422295566
-0.003482948065800274
-0.004718718514694763
-0.005753547278864603
-0.00629711386309405
-0.005931215809653216
-0.004522201425558029
-0.0025927332597584906
-0.000976703977424012
-0.0001583874894294192
-3.019097824967666e-07
4.338751570433538e-05
0.00022660634435991064
0.00032104134804672153
0.0008327856530844612
0.0007452472849721545
0.0003864835462022604
6.536811984758852e-05
-2.906797218555737e-11
-7.919196261392655e-05
-0.0005827771768660308
-0.0016663931551583167
-0.0030074073260470627
-0.003978227793152463
-0.004168809228909443
-0.00361443307273036
-0.0026779906248406158
-0.0017088590836675914
-0.000895581483924429
-0.0003435811376690509
-7.075746866562209e-05
-1.4735849533378337e-06
6.598886365672972e-06
0.00010941170397846679
0.0004152667399171469
0.0009387532422818421
0.0015893159987576484
0.002201311052879515
0.002595457390917633
0.002648148784363223
0.002340671807484413
0.0017678137637733035
0.0011015889447721164
0.0005242159429839832
0.00015715911597805214
1.4590482348929513e-05
-3.0015234367449083e-07
-5.544006055271603e-05
-0.0003229392431022374
-0.0009116860968706464
-0.0018247819401513593
-0.0029558705821360466
-0.004094173846650373
-0.004849687684788091
-0.004781388108622424
-0.0037609983620311006
-0.002192984254213959
-0.0008299427758404913
-0.00013672536483404376
-2.6027309271877853e-07
5.003875038632304e-05
0.0003671965032562928
0.0007437174692620742
0.0008331854862050196
0.0013795943814308397
0.0013848498959903306
0.0010236141923450777
0.0004566101224241658
8.402279412447185e-05
1.7903200779486936e-07
-3.9163980532288215e-05
-0.00036647424522745953
-0.0010857319180985067
-0.0018784925186780196
-0.002262620592350546
-0.00203785412168941
-0.0014707107334343906
-0.0008854231460631833
-0.00041868023363959974
-0.00013017455787154263
-1.4564026095109514e-05
2.7805022647983507e-08
2.8694454014363455e-05
0.0001872774768315124
0.0005451921119995664
0.0010919231193987822
0.0017320008648154498
0.002312989093743779
0.002677535040503638
0.0027202104789120444
0.0024269092073912436
0.0018809209192251202
0.0012328884596235481
0.0006461286966884028
0.00023847365457867892
4.272858524186554e-05
2.666718300543438e-07
-1.1213507322101416e-05
-0.00012766993026924205
-0.0004462590190787374
-0.0009898211297777908
-0.0016997726905514131
-0.0024189105736290516
-0.0027619359140058372
-0.0023780923632478464
-0.001447752349926841
-0.0005348499063582081
-7.374411572022862e-05
-8.811646376512009e-13
6.670432495597253e-05
0.00044054379399104435
0.0010493172450315826
0.001447094884791285
0.0014387313403351218
0.0017436592792808578
0.001885398060719535
0.0017258612477791054
0.0011890213281301111
0.0005576643331106454
0.0001394906266670602
5.172430355336191e-06
-6.284177695563618e-06
-0.00013276831449887607
-0.00042591001552524775
-0.0006674798050727976
-0.0006478164677540517
-0.00045356348609587013
-0.0002507119597758051
-9.976230855393384e-05
-2.028344035676945e-05
-2.5736715179541806e-07
3.7895535020444356e-06
5.365281604672209e-05
0.00020632630449142223
0.0004888730151562262
0.0008815183663160356
0.0013170626633020373
0.001698753670155083
0.0019310705790982542
0.0019522083348228671
0.0017557969093402338
0.0013933772404788186
0.0009566312499260555
0.000546239807817141
0.0002390825663238329
6.56688520877451e-05
5.362561892906971e-06
-1.6778717840612075e-07
-2.1474943023746173e-05
-0.00011402219087633835
-0.0002990020103923191
-0.0005582972517722771
-0.0008199862258545461
-0.0008754010682629368
-0.0005928746115008938
-0.00020940408525792705
-1.6617216798746924e-05
1.8137930876696686e-06
0.00011793186517453303
0.0005459034375842873
0.0012334659048149049
0.0018389249461180815
0.0020274574862397094
0.0018707373452443502
0.0017404388202411308
0.0019884666936930114
0.0021237194212280625
0.0019146550740057903
0.0013678268244397861
0.0007344367743056205
0.0002576847268180361
3.755319644891953e-05
4.461857261251992e-08
-9.32797284948934e-06
-4.5927431007539333e-05
-5.8802314742830645e-05
-3.9857519365098517e-05
-1.823249141387943e-05
-4.4140708241389675e-06
-1.0314541902125578e-07
5.96855077774553e-07
1.1255392851687146e-05
4.9365581782985156e-05
0.00012945590595877263
0.0002555117395770662
0.000416064311887332
0.0005846567432338327
0.0007263581905383425
0.0008083203613623067
0.0008104829112210124
0.0007322850706711669
0.0005927834712263293
0.00042423851679384016
0.0002617251467443067
0.00013268208224888147
5.00193159209092e-05
1.0821235534099998e-05
4.1523273156655053e-07
-2.77122920932996e-07
-7.152082630887118e-06
-2.7843259264967667e-05
-6.0607209113438335e-05
-9.133931097620032e-05
-7.748925137694316e-05
-2.1571703987669196e-05
-1.2980602661307933e-08
2.496034979300215e-05
0.00023181254322503358
0.0007320069987059294
0.0014333685746640544
0.002061849693794192
0.0023196807672517727
0.002182550568475954
0.0019082573717978304
0.0013667367474964514
0.0016357689599992135
0.0019868103370634578
0.002190138557237477
0.0020357848740357913
0.0015660113708990666
0.0009701346763596903
0.0004539416742538747
0.000144947239127222
2.8002165246746937e-05
3.180128607294244e-06
4.6546813305764906e-07
2.7385364341212093e-07
3.614531403341655e-07
7.126738804067131e-07
1.6685436634176945e-06
3.916210217563506e-06
8.502273699478255e-06
1.6601247243821617e-05
2.900187841151801e-05
4.547634879981989e-05
6.435919990709684e-05
8.264962702758906e-05
9.6731811901851e-05
0.0001034884155083789
0.00010135111226062343
9.083417540082894e-05
7.43282884880571e-05
5.52695592647291e-05
3.705367102351563e-05
2.2128816153040233e-05
1.1563406974958041e-05
5.149654841801664e-06
1.8808491263471331e-06
5.337079065228043e-07
1.1063157587842493e-07
1.723988850984879e-08
3.830289183496391e-09
1.5985901739707646e-08
8.495697300045133e-07
1.706153045655004e-05
0.00011923981722109632
0.0004281552661558985
0.0009846232671282579
0.0016590607182456316
0.0022129621400265487
0.0024163728225872366
0.0022081378066339218
0.001821826743126137
0.0015232198288117598
0.0008076046376104713
0.001012341684669208
0.001395229429404129
0.001837666164435374
0.00209081931876684
0.002028361995037905
0.0016797718188008974
0.0011762889819282142
0.0006909888837343712
0.0003503339085410994
0.0001691941341458034
9.057995265608266e-05
5.2850821649317734e-05
2.9162761605102148e-05
1.4509921706417982e-05
6.3392663007831046e-06
2.3168921616913572e-06
6.393984175812693e-07
1.0108327202617528e-07
2.3357421850970582e-09
-2.978654407364011e-09
-5.0935495365093794e-08
-1.699507096070175e-07
-3.3985551218104773e-07
-5.198546670958843e-07
-6.608936182717353e-07
-7.154865411225419e-07
-6.527875177162018e-07
-4.787731417319483e-07
-2.509294152591499e-07
-6.670090934043348e-08
-1.0431682521035673e-09
2.2969867537363155e-08
4.233083031276989e-07
2.1673750474174835e-06
6.92611630293781e-06
1.7080681599099453e-05
3.549424269804712e-05
6.739269986552339e-05
0.00013888849889676216
0.0003164076214760408
0.0006741063659489855
0.001213608540647767
0.0018004569685073218
0.002227993765933003
0.0023299130309502878
0.0020621621257777847
0.0015680285212705185
0.0011366010397494237
0.0009089302210693479
0.00031719525985714046
0.0004220022471747186
0.0006806264572359123
0.0010897114997358661
0.001500327355167009
0.0017556955274968954
0.0017739215676254943
0.0015593522759287759
0.0011942598495656416
0.0008077234623293382
0.0004994318429226427
0.0002921528850776558
0.00015519409156417924
6.75073510225753e-05
2.0644150698156313e-05
2.8627465107066327e-06
2.2756699786788674e-09
-1.3117825510188687e-06
-1.1157599995752002e-05
-3.486903764281922e-05
-7.270792403715791e-05
-0.00012049627792080373
-0.00017094051480148178
-0.00021536701482109455
-0.00024559216560790157
-0.00025567112382663
-0.00024325662674370472
-0.0002103004886438118
-0.0001628702239374989
-0.00010997076729708696
-6.147224417296384e-05
-2.5494142883488444e-05
-5.838871094211806e-06
-1.6105914908497013e-07
5.078987238974126e-07
1.0545277767360553e-05
4.69093668663839e-05
0.00012520888863100585
0.00025800701314432275
0.0004719800194847487
0.0008085358324273139
0.0012528079998667696
0.0016944822944266996
0.0019743335440464615
0.001981579954885221
0.001703346703725362
0.0012362912785638066
0.0007675277020758745
0.0004727560525426302
0.000356671501700513
5.611098863106768e-05
8.427347444817305e-05
0.00018199418007453945
0.00039358603031253414
0.0006897783479547248
0.0009841209279261532
0.001187616541297854
0.0012393046649230215
0.0011210761839787983
0.0008763381651023053
0.0005909803904086328
0.0003384028929675317
0.00015539648259113513
4.970897481158821e-05
7.03913690870727e-06
2.5158445846107163e-09
-4.278427964659626e-06
-3.6640048912397585e-05
-0.00011903679912034587
-0.0002597569754033488
-0.00045157001952387784
-0.000673095571714968
-0.0008930680360061065
-0.001076687278146009
-0.0011928005790985696
-0.001220531239913192
-0.0011539612520333308
-0.0010038052136780193
-0.0007955490538788201
-0.0005642415433682186
-0.00034688449514829145
-0.00017401728827498992
-6.24452440636457e-05
-1.092521027036853e-05
-5.5451406815837824e-08
3.367671287651279e-06
3.840349769921013e-05
0.0001402524884368476
0.00033058664379239874
0.0006088784797033824
0.0009416738853825667
0.001244701245611355
0.0014082209612111013
0.0013678865061974648
0.00113857204501297
0.000794993878005363
0.0004481392787494886
0.00020281317896215538
9.17777490538434e-05
6.129997248225577e-05
2.0331136631168622e-07
8.923783295981983e-07
9.060823743152665e-06
4.997375455608968e-05
0.0001469112013357272
0.0002902166898039656
0.0004429382290862581
0.0005567785302315368
0.0005838197326457863
0.0005039795804982304
0.00034863337614605505
0.00018249546615367943
6.512440182433216e-05
1.1323232414662123e-05
6.417481819488769e-08
-3.1829039650365896e-06
-3.679370528594303e-05
-0.0001343788396299399
-0.0003168061431648396
-0.000586523687248017
-0.0009254585423507211
-0.0012971188765915748
-0.0016526909485307393
-0.0019400835667306702
-0.0021141380312184226
-0.0021458790339616046
-0.002028780273376368
-0.0017805602700338558
-0.0014399770136756989
-0.0010591420070909607
-0.0006929306959688021
-0.0003876948617451931
-0.00017186107123487714
-5.052091259229634e-05
-5.35887750099275e-06
1.2328761069193854e-08
1.0585278027416854e-05
6.864675187376554e-05
0.00020137035447361534
0.00039622501666564266
0.000587065780740952
0.0006930538024713577
0.0006686021747611019
0.0005331985710968512
0.0003465908057354245
0.00017185862016103992
5.6031931715926104e-05
9.200761708489511e-06
7.084543833160271e-07
1.3587938521893053e-07
-1.8305510208260326e-05
-1.5101904588717737e-05
-4.212147333809753e-06
-1.7266408631537692e-08
1.731423641449424e-06
1.6501204656981774e-05
4.985835103149931e-05
9.312763579158318e-05
0.00012459065699777107
0.00012146491625996599
8.278483846196284e-05
3.470903744884303e-05
6.516628753234744e-06
4.8334146900103044e-08
-1.6857471118701988e-06
-2.1087550085770615e-05
-8.061484106920483e-05
-0.00019787340476219023
-0.0003811568233610056
-0.000626349798235848
-0.0009159687137295509
-0.0012208073316546818
-0.001504151560562019
-0.0017279586692455124
-0.0018598322611635654
-0.001879360097608219
-0.001782378216241558
-0.0015821498147211897
-0.001307091058740332
-0.0009954567092812043
-0.0006880729874070562
-0.0004206263220708934
-0.00021720524228622905
-8.64458685000292e-05
-2.1132927965538867e-05
-1.2699105746597166e-06
1.9627904383457135e-07
1.0446543465641025e-05
4.932528049562254e-05
0.00011310523326248948
0.0001642976844673153
0.0001684199235095894
0.0001258176913744007
6.685935833751609e-05
2.163518439863366e-05
2.113753779568413e-06
-3.731715381205454e-08
-6.057181291938948e-06
-2.0774418043124336e-05
-2.4394506111081196e-05
-0.00017445560273628976
-0.0001791341540533796
-0.0001324782844068132
-6.856535133763991e-05
-2.4816372720316366e-05
-5.268435410636701e-06
-2.7044951177237527e-07
2.4664349897642733e-08
8.863343283418808e-07
1.878003830099825e-06
1.1265843552984862e-06
7.275773512379777e-08
-8.324788989194161e-08
-2.4677851684197225e-06
-1.1942833947789917e-05
-3.349738222606557e-05
-7.13663548372889e-05
-0.00012813960972300867
-0.0002039560907952972
-0.00029593066904715017
-0.0003979813508357028
-0.0005012108171899567
-0.0005948969920608193
-0.0006680270994266908
-0.0007111191887011415
-0.0007179724339341967
-0.000686943681088252
-0.000621431440914745
-0.0005294137942475258
-0.00042210884418834567
-0.0003120177585924185
-0.00021075552866043425
-0.00012712755804700432
-6.585397888382901e-05
-2.7200852090960267e-05
-7.563957149116941e-06
-8.099133247109761e-07
2.0708898786680383e-10
8.941089710006215e-07
4.144171287457948e-06
5.637798284437073e-06
2.97410917345255e-06
2.76108157644388e-07
-8.655418634964425e-08
-5.018987683724267e-06
-2.8831391829005943e-05
-8.519769934382659e-05
-0.00016817316360812027
-0.00022732593081418114
-0.00021801144804013952
-0.000521957764420504
-0.0005699276693467948
-0.0005252115695832381
-0.0004132203321114942
-0.00029028663728800455
-0.00018538972189847692
-0.00010731291432515451
-5.620752956067807e-05
-2.7882164221167862e-05
-1.5026620782604454e-05
-1.0667387258369872e-05
-1.0738747361009792e-05
-1.2604051177076025e-05
-1.4642452324748012e-05
-1.6573175899264882e-05
-1.841813712872935e-05
-2.023765487629129e-05
-2.2108542089102457e-05
-2.4099108693194074e-05
-2.6246757717001636e-05
-2.8539273364149787e-05
-3.0902981668236307e-05
-3.319956476754631e-05
-3.523508506820151e-05
-3.6783020790912364e-05
-3.7618235491787364e-05
-3.7558092627299374e-05
-3.649978354125587e-05
-3.44468010139049e-05
-3.151600485035801e-05
-2.7923729351734725e-05
-2.3952251683676616e-05
-1.990416428831906e-05
-1.605483034173369e-05
-1.261412055855475e-05
-9.705665436204426e-06
-7.366793344492415e-06
-5.565379305020856e-06
-4.365003164624551e-06
-4.546266034414376e-06
-8.006652373129715e-06
-1.9528300184867283e-05
-4.9011420043620446e-05
-0.00010872332989996116
-0.00020711841545374305
-0.0003446452183747577
-0.0005073532264145469
-0.0006532208643843156
-0.0007066644378158074
-0.0006367800261949367
-0.0009616907264465094
-0.0010790910048081976
-0.001094075321256136
-0.0010099094269903294
-0.0008684199106353983
-0.0007021402692357563
-0.0005334109016643281
-0.0003802631704551973
-0.00025684784634598607
-0.00016823765989413097
-0.00010934020696833068
-7.01882189009797e-05
-4.138946988976147e-05
-2.038206848088735e-05
-7.483468804688839e-06
-1.5512401470200704e-06
-4.780589333846025e-08
6.492575240357084e-08
1.3779061584483458e-06
5.3461214564164084e-06
1.2042198776875649e-05
2.0359119517834983e-05
2.85235969077568e-05
3.47141041831252e-05
3.759305932892911e-05
3.662932029065554e-05
3.216853108031911e-05
2.5277818700157688e-05
1.743401549916371e-05
1.0144037360743757e-05
4.580925279814448e-06
1.304151205811657e-06
1.0497545160940907e-07
-6.818801045662058e-09
-6.795949931057136e-07
-3.975711056905333e-06
-1.2027244831900732e-05
-2.661823493189544e-05
-4.913758225733042e-05
-8.417899943912539e-05
-0.00014382229224239073
-0.00024294098520320483
-0.0003924317085461116
-0.000589920507130651
-0.0008173750690974004
-0.0010464452924176485
-0.001240157405564083
-0.0013495211644517543
-0.0013196814110227179
-0.0011526862499526358
-0.001318150431354374
-0.0014984179065471697
-0.001594393392036409
-0.0015900892467088153
-0.0014965485918704883
-0.0013303128116114095
-0.0011122928489992173
-0.0008694138943203059
-0.0006315070118318898
-0.0004227116976423401
-0.00025559074627830395
-0.00013279635063429462
-5.255112822140034e-05
-1.1892776033058676e-05
-4.203785604738889e-07
5.358083780348747e-07
1.3097198194501254e-05
5.6715770141126885e-05
0.00014270716496871946
0.00027097378899593736
0.0004297360027439171
0.0005981815050115166
0.0007511764313836048
0.0008647594472852568
0.000921107788537202
0.0009119500232643936
0.0008398486830039661
0.0007172789747361246
0.0005638465212014436
0.0004023107595943793
0.00025423513593218625
0.00013606625265089742
5.633586169768626e-05
1.4404692375966329e-05
9.176294213071307e-07
-1.4059538864058878e-07
-8.124685062991134e-06
-4.166598899515989e-05
-0.0001147934621261016
-0.00023737203546142423
-0.0004197347265539051
-0.0006663222359230661
-0.0009663965053061821
-0.0012891836351047274
-0.0015902787573161
-0.0018245666902297407
-0.0019546438895573625
-0.001953491622921207
-0.0018094502294582371
-0.001552420948324897
-0.001455821193526301
-0.0016630355592666308
-0.0018105004704864086
-0.001872568443615111
-0.0018350662944771718
-0.0016963095346226407
-0.0014689880152080116
-0.0011801216898205081
-0.0008665593762594268
-0.0005673893358469164
-0.0003166004487974834
-0.0001372432994071993
-3.685327078096532e-05
-2.550543213366782e-06
3.091381982933271e-07
2.071519295013945e-05
0.00010987080720520852
0.0003077376027871499
0.000631754153591571
0.0010706876713133238
0.0015851465797293374
0.0021144953431241806
0.002588392106867023
0.002940269482728522
0.003119834559563871
0.0031021525842960473
0.0028916954658822786
0.0025208412719647643
0.002043374689785822
0.001524404144106748
0.0010287047422186423
0.0006095973901906358
0.00030040138042608744
0.00010978772981816173
2.180061537369004e-05
4.32804389790721e-07
-2.088044689875406e-06
-3.479160616734622e-05
-0.00013715418517613374
-0.0003308284283823535
-0.0006176022743393642
-0.0009786883544294644
-0.0013754708296428813
-0.0017551988820376466
-0.002062004603515296
-0.0022504158407805636
-0.002295682858952288
-0.0021974347899338213
-0.0019784343660697477
-0.0016806789291507883
-0.001349940813987541
-0.001541025799358043
-0.0016877869294968932
-0.0017639315793443078
-0.0017466208992618158
-0.001626608762325305
-0.0014119243613808423
-0.001127577334196963
-0.0008113296903821689
-0.0005074342651480494
-0.00025823478751672087
-9.279502062071054e-05
-1.5579175033464933e-05
-3.696599863038889e-08
6.990336129312067e-06
7.313686690269061e-05
0.0002644904867216791
0.0006286601033014178
0.0011810773703627114
0.0018979672340038425
0.0027177079279432767
0.0035502867777440178
0.00429275418884469
0.004847440921929648
0.005139266734579268
0.005128855391550689
0.004819097094973922
0.004254117229649802
0.0035110358135334685
0.0026862179915833257
0.001878657264944275
0.0011735032039184227
0.0006287142813783862
0.0002670608017671352
7.482070203369137e-05
7.2850540297532435e-06
-3.7481399076893606e-08
-1.6658555582948498e-05
-0.00010161899933606899
-0.00028954348484722445
-0.0005823474877539489
-0.0009513248304735674
-0.001346458798455008
-0.0017092335146307066
-0.001984979192408545
-0.002134202097908303
-0.0021415732806286244
-0.002018528854343544
-0.0017985290527900554
-0.0015220176564560725
-0.0010761452773739785
-0.0012221810959712994
-0.0013294145316528204
-0.0013771451473011266
-0.0013484631552706516
-0.0012376553558646642
-0.001053302844398074
-0.0008180983572113675
-0.0005652741520543224
-0.00033240796288622524
-0.00015271872223478048
-4.4776111062102636e-05
-3.991961806883955e-06
1.2551096769573333e-07
1.8832244942458774e-05
0.00011346014225281432
0.00034142347925527006
0.0007417832789976193
0.001323788320804309
0.0020611430035660026
0.002893400496768516
0.0037343208218682095
0.004485553787157437
0.005053026675672899
0.005362929036258316
0.005374311119750267
0.005086011102018412
0.00453668115892568
0.0037980029021012756
0.0029623617004329575
0.0021273575001326973
0.0013799042865808354
0.0007827782267638651
0.00036595899365530164
0.00012423109491582773
2.1391183233421954e-05
1.7785663490597712e-07
-4.093353647773065e-06
-4.898638283230794e-05
-0.00017215381988118576
-0.000383074598659271
-0.0006631077369843963
-0.0009730332106562731
-0.0012645841391304641
-0.0014920814702789333
-0.0016223198828364254
-0.0016414574809987684
-0.0015567611246217173
-0.001392668610263659
-0.0011802509404317742
)
;

boundaryField
{
    "(inlet|outlet)"
    {
        type            zeroGradient;
    }
        "(front|back)"
        {
            type            empty;
        }
    "(top|hills)"
    {
     	type            zeroGradient;
    }
}

