/*--------------------------------*- C++ -*----------------------------------*\
| =========                 |                                                 |
| \\      /  F ield         | OpenFOAM: The Open Source CFD Toolbox           |
|  \\    /   O peration     | Version:  v1806                                 |
|   \\  /    A nd           | Web:      www.OpenFOAM.com                      |
|    \\/     M anipulation  |                                                 |
\*---------------------------------------------------------------------------*/
FoamFile
{
version     2.0;
format      ascii;
class       volScalarField;
location    "0";
object      nutCoeffs20;
}
// * * * * * * * * * * * * * * * * * * * * * * * * * * * * * * * * * * * * * //
dimensions      [0 0 0 0 0 0 0];

internalField   nonuniform List<scalar> 
1000
(
0.00014611372845588325
0.00010212416317902468
1.8204152983327476e-06
0.00047694564988758894
0.0020842181380715803
0.0046973975958693745
0.007764946519663032
0.010595604713132074
0.012697135477840217
0.014166221841505408
0.015627488560161492
0.01783840095783908
0.020869134157778045
0.024165754293664493
0.027491077735873934
0.030744024534978764
0.03382547965257189
0.03664514543132804
0.03912677109599535
0.04121164273524412
0.04285997574943123
0.04405059790664466
0.04477902811686565
0.04505467260882068
0.04489720860071478
0.044332836246275716
0.04339074814193883
0.04210051713000178
0.04049055381426975
0.038588132736819
0.03642097655066535
0.03401964096943076
0.03142062932071355
0.02866867763342444
0.02581762238330379
0.02292947498670517
0.02007115707310855
0.017309733773404272
0.014838834792997111
0.013139696328280099
0.012102626254919743
0.010978379205443043
0.009191858246833003
0.006743694987604951
0.004161329075500397
0.002020200674774813
0.0006585466418477887
9.57546740926193e-05
1.0617265061999825e-06
7.937757059647622e-07
0.0004909749792827734
0.0005263276960260434
0.0002337147633640191
4.619128527359687e-06
0.0006404972834610267
0.0025293499723369776
0.005546643229385852
0.00917600564869852
0.012729671435725393
0.015852137205174793
0.01879283636013756
0.022112696492950643
0.02596813969532428
0.030047020715547018
0.034167217895564254
0.038208487179804754
0.042052528872185545
0.04559098677145819
0.048731677489882386
0.05140270456094085
0.053554126346172244
0.05515754929357706
0.056203797788750294
0.056699424371952654
0.056662512975365814
0.05611825252311278
0.055095081149219634
0.053621913688359724
0.05172681146006549
0.0494374688458483
0.0467835340287641
0.043799837086591
0.04053047112468867
0.03703184057685917
0.03337401230790411
0.029639601244579265
0.02591973946840401
0.022307549767145263
0.018961074578560506
0.016156134920395304
0.013690019980405343
0.011012543784311345
0.007950821950396376
0.004894075582288457
0.00241413664552037
0.000823731662006228
0.00011351412387951867
5.920269971866912e-06
6.618685387996862e-05
6.295910461030767e-05
0.0008868675355527914
0.001106817604367222
0.0009113944060580662
0.00031357387198396175
4.368727499929531e-06
0.0006867063922872642
0.002731014977623088
0.006084339104679354
0.010226410836182184
0.014501661008548581
0.01860832577009735
0.0225844719291365
0.02657553878258998
0.030659987575586602
0.034775612452677844
0.03880898760913849
0.042649763221303004
0.046197495081012
0.049366876410453536
0.05209092736160481
0.05432223293809662
0.05603221542373415
0.057208846436695694
0.057853425495206924
0.05797673790432938
0.05759521930033491
0.056727760869950475
0.05539359817680685
0.05361173876793379
0.05140203638768432
0.04878796322318704
0.04580029927142328
0.0424814255970859
0.03888863082539568
0.035095527863006175
0.031191061732472318
0.02727519389628562
0.02345177870973685
0.01978847593595882
0.016232589543863148
0.012623336373097966
0.00891778658878643
0.005410485496321438
0.0026287184467147667
0.0008870105602803033
0.00011719424509812409
1.6693945461083357e-05
0.00017322788098050534
0.00023630515555544677
0.000172409246800808
0.0011493107977879613
0.0015828104547667748
0.0017290993879685264
0.0012535609685963252
0.00045533460029678326
1.3894041846737492e-06
0.0005449879899154168
0.0025263716744337752
0.0059011695685941366
0.010082107399170467
0.014336742941394684
0.018073105274596914
0.021306931319970406
0.02447313502867309
0.02764082580794456
0.030729207328149426
0.03366258914265225
0.03637423397488081
0.038808824974473445
0.0409235456098049
0.04268785279808816
0.044082308245853206
0.04509652761967435
0.04572697509300014
0.04597444068447191
0.045841950894020024
0.04533318512522638
0.04445188138910696
0.043202286652761025
0.04159077943120257
0.03962860564734159
0.037335098313882695
0.034741148601903596
0.0318918411391887
0.028847497327534465
0.025682722733871764
0.022482756710854424
0.019337557447048206
0.016210700568617866
0.012759848387153537
0.008984191262829861
0.0053848451137373165
0.002528039374489603
0.0007798888130882478
7.218511314410109e-05
4.596669480155215e-05
0.00028913390273134677
0.00045250959138754015
0.0003958463981251915
0.00025220963965987366
0.0011364265121127826
0.0017183957346772272
0.0022964133735300187
0.0023674474532998846
0.0017609493277129758
0.0008056243883015181
7.757385530646168e-05
0.00023788838823470487
0.0017347577860162815
0.004402838684267979
0.007491176128030486
0.010047987272596516
0.011901993509467176
0.013594646719710465
0.015262928199738877
0.016868667393916143
0.01837976176008097
0.01977107066467595
0.021024244056850033
0.022126776646514055
0.02307057784686353
0.023850356182244577
0.024462007743902284
0.024901359755417754
0.02516312412405118
0.025240525334281273
0.025125363190202806
0.02480875256240506
0.024282371039224104
0.023540272933377737
0.022580979195941372
0.0214096264286431
0.020039979747155188
0.01849583504722402
0.016811399561861114
0.015030653538802395
0.013205063729442494
0.011390113258460247
0.009488303324909318
0.007066573962442728
0.004292691441393257
0.0019266635711948565
0.00048340119120547545
7.135958891732799e-06
0.00014938272823697258
0.0004870861858555606
0.0007083214128239103
0.0006661589464364471
0.0004455103567490733
0.00024809265976432894
0.0008268056218557704
0.0014164607130413172
0.002311047483154383
0.003082465056217497
0.003234805692813026
0.0026589033140390315
0.0015736695103342254
0.0004738905785594162
1.0564508516202256e-09
0.00048346634421517193
0.0015995598976776143
0.0025723178506329466
0.003106962508105912
0.0035179151943822056
0.003904605252489597
0.004260034869033282
0.004581314410037961
0.00486920061556336
0.005127085949504374
0.005359780497897727
0.005572212185629213
0.0057682750288286355
0.0059499128976461275
0.0061165111555552334
0.006264633867845318
0.006388149056020232
0.006478706296292174
0.006526526221534198
0.006521470258893583
0.006454205415193519
0.006317381907533636
0.006106665107411315
0.005821533898561939
0.005465761396017425
0.005047552190260749
0.004579289145539723
0.004076879078322799
0.0035586586552833533
0.002941570333838578
0.0019431851914724022
0.000795886565799297
9.638341467481447e-05
5.7713342373824645e-05
0.0004495210053214017
0.0008831545666187417
0.001096415305528026
0.0010036774969282706
0.0006808067248192894
0.00034751757121772865
0.00015621289154773687
0.00036132342358682104
0.0007938392102355893
0.0017190231269823633
0.0029865177748236594
0.00405673456633312
0.00450917346398632
0.00415562915896204
0.0030825597666962164
0.0017318737168559003
0.0006786466997537097
0.0001748203300077464
5.095733618314266e-05
4.3673384005214156e-05
5.455132651302336e-05
7.00203360527065e-05
9.022468135058996e-05
0.00011453848864471113
0.0001413496053581282
0.0001680779795855031
0.0001914828291495586
0.00020822300915084932
0.00021554459196154754
0.00021190501696932107
0.00019735134616725894
0.00017354248647192372
0.0001434062043774148
0.00011053872954768488
7.8517822503012e-05
5.031605561832901e-05
2.7930093402945502e-05
1.226827026230676e-05
3.253179664273763e-06
5.497034716599884e-08
1.366345603359224e-06
5.662658020535909e-06
1.142092490192278e-05
1.7296028747389596e-05
2.2256776731290907e-05
1.7141635516914546e-05
1.1708956240609424e-06
0.00013491834276113386
0.0005686046373990522
0.0011701314498981184
0.0016263482261455974
0.0017273290979810327
0.001470267128767196
0.0009832711106252257
0.0004737817672039941
0.00015360166507771462
3.7077031197473815e-05
2.409858551267853e-05
0.00018061621768114653
0.0007919057044700436
0.0020661870312387045
0.0037058694405356766
0.0052402417644273735
0.006243878593053426
0.006422482873152959
0.005806115115605676
0.0048385594852556925
0.004107593383730726
0.004055525583803736
0.004587177452480283
0.005290753213606429
0.00604552976737651
0.006836251823823242
0.0076409378283849114
0.00843135480266257
0.009174532406877878
0.009835195889215081
0.010379054712440173
0.010776381783423912
0.011005360602195197
0.011054508866781875
0.010923680420233164
0.010623508828921211
0.010173394013366744
0.009598678600242593
0.008927514907274245
0.008188214622243978
0.007407348077780201
0.006608744195843034
0.005813270202706805
0.005038998824173017
0.004301407149271376
0.0036134582895218565
0.002985383535030877
0.002424342216491615
0.002002101438303541
0.0019436213007788044
0.0022613031006044407
0.0026812477038435294
0.0028875898372507703
0.002682346681119532
0.00210625143076339
0.0013515783412190734
0.0006382843697779994
0.00016468149040390479
6.34742524425506e-06
1.0901087130842563e-05
0.0001606797950070576
3.234766130961046e-05
7.803294139517115e-05
0.0007954044406960612
0.0022966951832155517
0.004318837196479364
0.006465211598910157
0.008293928591461436
0.009486131190683814
0.010116267935698288
0.010680137436814695
0.011833790837317422
0.013672740728769431
0.015772256720803974
0.0179786254561386
0.020249156587637863
0.022529348370238653
0.024753687635523925
0.026847946808606752
0.028733233770443175
0.03033155703034008
0.03157249805924225
0.03239974162463899
0.03277654981891287
0.03268888837131791
0.03214575425070617
0.03117674753383149
0.02982762547072622
0.028154989425924707
0.026221238064681147
0.024090664136327676
0.0218268823696602
0.01949165316360868
0.01714417261136646
0.01484038363088413
0.012631828294253161
0.010563751812141949
0.008672943036933238
0.007069175869849633
0.006015485308527616
0.005400527588981875
0.004802160476996763
0.003957723254812817
0.002868953514026949
0.0017361856563642803
0.0007857001395992507
0.00018276426407821746
1.2427375707116507e-07
0.00011149045691175216
0.00023361224219518306
0.0010575289636256897
0.0007765433565676671
0.00022813162374408716
1.6296760528610945e-05
0.0006492495031523661
0.0022068741356935347
0.0045359967627911155
0.007324055300512215
0.010156044860686947
0.012757436033366414
0.015222589622315081
0.017938149488997968
0.021091773263713448
0.024520106891297126
0.028119595673350567
0.03182124270450048
0.03554042827389903
0.03917772115441544
0.04262142836849454
0.045752437889189944
0.04845136717597672
0.0506074703500045
0.05212796467895916
0.05294642149531375
0.0530283651370473
0.05237323866479203
0.051012542410426256
0.04900500875560857
0.046429908277462184
0.0433804321739016
0.039957977642469736
0.03626782141085682
0.03241645704783198
0.028509304298295512
0.02464821662183573
0.020928482842745465
0.017434655605171687
0.014236210445853239
0.011422602525727535
0.009115339582679561
0.00717565140552069
0.00534776419420203
0.0035755415247786244
0.0020042753102865424
0.0008270178764164774
0.00015617577871193065
1.0639950811543938e-05
0.00029160793420688626
0.0006839120124164283
0.0008555709509658659
0.0028253391471300595
0.0026440954191730838
0.0017456398156216588
0.0006284411930684627
2.153645872158023e-05
0.0003075167755454158
0.0016365787357474296
0.00399116404052768
0.00713300654796672
0.010671011794601934
0.014292957086510204
0.017881892391013336
0.02156997899806278
0.025517242218927087
0.029707815858509033
0.034060022680772656
0.038472901798369825
0.04282723387148032
0.04698840499232548
0.05081192672704447
0.05415156796621702
0.056869779661634264
0.05884867679524025
0.06000033470509059
0.06027408416424116
0.059659792202008184
0.05818680221703266
0.05591922642145695
0.0529488747047084
0.04938762474014662
0.04536053636065718
0.041000028355883227
0.0364415838542374
0.03181992108702118
0.027264859859075685
0.02289657951715767
0.01882026695123964
0.015120438330973674
0.011831022590249932
0.008879175907188994
0.006196955282746304
0.0038382178112473463
0.001942837166718696
0.0006661750670529028
6.394280038896838e-05
7.722542701550913e-05
0.0005744039934959343
0.0013157873296065093
0.0018753007151852033
0.0019687680212172104
0.0053316223530869
0.00555066211737452
0.004754698318287654
0.003189986819812682
0.0015652856673895894
0.00038891048918164746
5.426247202156307e-06
0.0006688517831193579
0.002454359662573736
0.005139984575441255
0.00828137675584349
0.01140060498448604
0.014469928073549663
0.017796815163070686
0.021429038803892672
0.02529472236888154
0.029298906645427433
0.033324756398825775
0.037236943580577615
0.040887809805878854
0.04412629873180008
0.04680895401843948
0.04881167311757771
0.05004039713298113
0.05043892042596661
0.04999264342946725
0.048727838908662974
0.04670721121839768
0.044022848620067695
0.04078825939975332
0.037130843877659046
0.03318513970713387
0.02908753234830406
0.02497140540729993
0.020962337712031674
0.017173221629854688
0.013698992127073064
0.010611758277619324
0.007895663507861056
0.005377701770543454
0.003102692521782493
0.001342566129056376
0.00029397458271683015
2.6762871066400483e-06
0.00035533424184895423
0.0011631090060129372
0.0022101027558578683
0.0031980854797170194
0.003699630687611565
0.00355442445539913
0.008212296929842051
0.009081493783917281
0.008890092632167822
0.007604707025312596
0.005724011849787863
0.0036777761920895567
0.0018111401885937438
0.00047675900923009395
1.078508269117358e-07
0.00048427962830377343
0.001697118944212575
0.0031793588045988404
0.004740644259261506
0.0065635022708607285
0.008701486090654633
0.011116214495679342
0.013744394950432016
0.016498355626891396
0.019269202319713446
0.02193293072196981
0.024359192269560462
0.026422008868148144
0.02801089246767967
0.029040951059265088
0.029460144373160385
0.02925283358199562
0.028439265438364923
0.027071613289303586
0.0252275728778505
0.023002934873151304
0.02050429636535876
0.017842407797977418
0.01512669125019415
0.012460464244898236
0.009936649121465612
0.007633780779045685
0.005612376093213132
0.003911928262146756
0.002502077211513185
0.00126859310715346
0.00034549877785397396
4.997776752343615e-08
0.0003234266957661416
0.001204298116665825
0.0024168899608235637
0.0037376284933045407
0.004958235924336999
0.005816139852116622
0.0059825112007871354
0.0054502891692330725
0.01096241752398761
0.012594391279788291
0.013372669235187566
0.013064522905583685
0.01189112942310793
0.01008029863693669
0.007824988962804192
0.005384672084184304
0.0031423673239972536
0.0014635203696182172
0.0004887183386500801
8.893269625300255e-05
7.061440091684854e-07
0.00012350674664963508
0.00047494923104629544
0.0010655704124086418
0.0018838589992654338
0.0028947139407030824
0.0040407306620775275
0.005246566612777747
0.006426008522320704
0.007490906411620369
0.00836061433869776
0.008970554182893676
0.009278530253399711
0.00926796111370647
0.008947930323709169
0.008350355066217017
0.007525177459616664
0.006534600230257693
0.005447168070643352
0.004332360116701271
0.0032559989400902183
0.0022763896428535705
0.0014411659979157647
0.0007847493156464309
0.0003264459286407922
6.944317033816407e-05
2.155436107957178e-06
0.00017209461050532446
0.0007436740410675889
0.0017990831824458414
0.0032422115251466246
0.004839097645497813
0.006345962904846967
0.007594516856877289
0.008456004078727264
0.008771002843199534
0.008364920193792414
0.00735967092082258
0.013074743556900548
0.01540539725239452
0.017250199617641303
0.018304319706616834
0.018559115499904383
0.018035699228715805
0.01673774953470733
0.014739675487274478
0.012303904637124134
0.009848742669841747
0.007767990075523187
0.006281496570642192
0.005165426027578797
0.004103817924005638
0.003084072399502253
0.0021657892710444087
0.0013946705443094393
0.0007976996137400583
0.00038104348718881464
0.00013107546466442353
1.8272026359260265e-05
3.2252114237425655e-06
4.3606921598197004e-05
0.00010084058258495443
0.00014539607720161
0.00016002027659389067
0.00014069463688179244
9.555536666285987e-05
4.2304837952789723e-05
4.769687919810993e-06
9.20609604039379e-06
8.079604688472527e-05
0.00024059914537249202
0.0005030634421558006
0.0008741190204239025
0.001349874642603204
0.0019160109616743872
0.0025480061772645258
0.003258474899259488
0.004233567091004126
0.005608997436908381
0.007256325269663113
0.008934501120224588
0.010377180844489034
0.011403752660106535
0.011945766769027309
0.011978610621397687
0.011464279737457837
0.010379934454646321
0.008914907636693436
0.014177335535951087
0.016986427806383337
0.01970360623524448
0.022058909961636463
0.02391606627742771
0.025163939359113496
0.025676764427295176
0.025372129216735668
0.024325326723107134
0.022811821688773465
0.021214564933953864
0.01987498637041589
0.018672697409532996
0.01728478206397628
0.01570584395388138
0.014029319677716303
0.012345663279081391
0.010734248524336317
0.009257639601839994
0.007958791024588938
0.006861371218613571
0.005972484700458974
0.005287017233934842
0.004792445163706748
0.004473229606629496
0.0043141244609253586
0.004302106016488511
0.004426968310439856
0.004680814854637774
0.005056859455738187
0.005547849644671808
0.006144461536873158
0.006833830805366925
0.007598360641131412
0.008414894762319715
0.009254293974342142
0.010081595143586364
0.01085687138105841
0.011596092928044713
0.01250660529089746
0.013659117001496942
0.014828033905553047
0.015754133449984144
0.01623572585277108
0.016192421220248644
0.015646898670332157
0.014656570120314846
0.013277077796078009
0.01158985815210651
0.00978419839931621
0.01412443750901563
0.017103794873233952
0.020292454854395913
0.02350564637354962
0.026573849726038098
0.029341034940393407
0.03163884720293393
0.03331250253707601
0.034289350715163855
0.034632712857945065
0.034525995614440155
0.034195120893466824
0.033616291423820284
0.03262193690247297
0.03124061623901471
0.029575685177642433
0.02773750006918096
0.02583353582022601
0.023960211630792615
0.022197314157126953
0.0206053139563453
0.01922532919409643
0.018081073648507934
0.01718190786750169
0.016526276510122916
0.01610477714182697
0.015902618952648225
0.01590122340490201
0.01607914900127122
0.016412395116354016
0.016874410147434325
0.01743590928269023
0.018064692530101067
0.018725492368344476
0.01937998630224346
0.019987068486375575
0.020503468294345396
0.020884958186207853
0.021128410503431647
0.0213521737232882
0.02156054297648882
0.021573286063882702
0.021229183090745046
0.02044277602032636
0.019222994176333403
0.017643096631555895
0.015797670829968028
0.013786575208109511
0.011733213007495169
0.00978245334465273
0.013015796543612377
0.01585555247252542
0.019051706575156823
0.022500996702221998
0.026056708839178194
0.02957566342557
0.03290620089779067
0.035892845210912294
0.038396882970539344
0.0403268194843557
0.04165846830064167
0.04243013758154588
0.042665057253743546
0.04236114006088729
0.0415733438852255
0.04039205779919867
0.038921062766529235
0.037268022697239334
0.03553603920883566
0.033817011921065836
0.03218739066718635
0.030706133308345245
0.029414693752044738
0.02833828935287275
0.027488022657776355
0.026863124363334715
0.02645315216399033
0.026239818983703662
0.026198460072568347
0.026299226330893717
0.02650801140664587
0.026787357181032062
0.027097237922379322
0.02739585048835051
0.027640381773563465
0.027787839115140243
0.027796056703589637
0.027625050911049855
0.027250065111023597
0.026678325451873184
0.025877184691135317
0.02477796899499039
0.02334706651052526
0.021600336161483314
0.01959649967335528
0.017418332973620776
0.015158890433875286
0.012918887963754793
0.010814416440238984
0.008935248337100033
0.011145504391321781
0.01360723118828269
0.016423248301254127
0.019540505256544407
0.022854527036582445
0.026256895427916926
0.029632962238545564
0.03285951516667114
0.03580209300000967
0.03832406893394179
0.04031004412265612
0.041690816597833934
0.04248663002326585
0.042761306115054055
0.042566845431709445
0.0419670616787012
0.04104092369102388
0.03987541304270544
0.038558715420276286
0.03717431848209769
0.035796551326599965
0.034487627040456284
0.03329607014640194
0.03225629983631339
0.031389100614953716
0.03070255055237387
0.030193306152472177
0.029847931513035577
0.02964433440109575
0.029553287934285154
0.029539958992926944
0.029565589471883973
0.029589153633282343
0.029569012157482442
0.02946440453753599
0.02923680003834953
0.028851145634303573
0.028277143404170525
0.027485262090430316
0.02643154002447696
0.025085303421182068
0.023459321901559534
0.02159395863389358
0.01954891542361248
0.017391635452237958
0.015191552204397805
0.013021727863093385
0.010960434925574225
0.009091604511228379
0.007463448570611837
0.008903104494834451
0.010858952733655985
0.013069538859896503
0.015501014946487257
0.018089948560951082
0.020763237193871128
0.023440478778632447
0.026035387998650975
0.028454968024840998
0.03060333606044973
0.032393253900356134
0.03376082578173971
0.03469914084639029
0.03523764771532081
0.03540218421346656
0.035228496964830255
0.034765449595461476
0.034070937047123745
0.033207586262630755
0.03223879865645409
0.031225058750723636
0.030220959442128614
0.029272818249271727
0.028416997344266438
0.027678891178928695
0.027072529145482315
0.02660070953719971
0.02625556523999396
0.026019644625199633
0.025867310791094892
0.02576661416767629
0.0256814167101725
0.025573720242318864
0.025405979600104402
0.025143191960302066
0.024754614404029603
0.024215066168429125
0.023505904520748737
0.022611366647478395
0.021508790173953008
0.020193478929355364
0.018693227507840166
0.017049586432289467
0.01531148387918618
0.013529499506652018
0.011754055406635808
0.010036121694532817
0.008426057345677704
0.006970888756928419
0.005696934908271888
)
;

boundaryField
{
    "(inlet|outlet)"
    {
        type            zeroGradient;
    }
        "(front|back)"
        {
            type            empty;
        }
    "(top|hills)"
    {
     	type            zeroGradient;
    }
}

