/*--------------------------------*- C++ -*----------------------------------*\
| =========                 |                                                 |
| \\      /  F ield         | OpenFOAM: The Open Source CFD Toolbox           |
|  \\    /   O peration     | Version:  v1806                                 |
|   \\  /    A nd           | Web:      www.OpenFOAM.com                      |
|    \\/     M anipulation  |                                                 |
\*---------------------------------------------------------------------------*/
FoamFile
{
version     2.0;
format      ascii;
class       volScalarField;
location    "0";
object      nutCoeffs17;
}
// * * * * * * * * * * * * * * * * * * * * * * * * * * * * * * * * * * * * * //
dimensions      [0 0 0 0 0 0 0];

internalField   nonuniform List<scalar> 
1000
(
0.08202364711762236
0.08406418972498639
0.07502304940703833
0.047146420267188155
0.004872116938582526
-0.04195488851564547
-0.08500368456703934
-0.11820905609516724
-0.13795953723503218
-0.14487512009539713
-0.1432058520547204
-0.13738139637955166
-0.1287123542232094
-0.11664807404774341
-0.10133541308788331
-0.08332226180344454
-0.06334480453311774
-0.042290080626168534
-0.021146795970198355
-0.0009473713682828221
0.01729303582414122
0.03263736114284647
0.044281483043402875
0.05160275708421636
0.05419642168892249
0.05190043541757388
0.04480609232881696
0.033254353964043575
0.017817100588636003
-0.0007363441473182639
-0.02148420497751409
-0.04340999816031685
-0.06546292083531786
-0.08662245108974245
-0.10595864825696454
-0.12268232695448567
-0.13618418379342195
-0.14605821725157134
-0.15216293068449682
-0.1544894885514226
-0.15107756136492775
-0.13749334167396904
-0.11038378886350232
-0.07104814597864689
-0.025038116189548904
0.020476822128459925
0.05717868134682757
0.07704758164571499
0.07956584101578232
0.07494381531725268
0.07982650717466051
0.08618229554285492
0.08804370915083982
0.07459232920896786
0.04399279030767591
0.002547827826764151
-0.042214944363303704
-0.0832847574376544
-0.11438650497795055
-0.13234032293866044
-0.13828745486987828
-0.13533949526317296
-0.1264941311594084
-0.11350140877476214
-0.09698614570437994
-0.07751830305685416
-0.05587328767526998
-0.032994199148548765
-0.009940781507692039
0.01217152398897448
0.03223791178838746
0.04923158984280609
0.06226590564217792
0.07065037436358385
0.07393331609606545
0.07193080442815744
0.06473884833039764
0.052728514918288893
0.03652295952019862
0.016958638272455463
-0.004966607746796889
-0.0281584711485937
-0.051492325630691664
-0.07388339729769451
-0.09435005583657573
-0.11206632134062182
-0.1264011193252033
-0.13694126095739032
-0.1429978453780207
-0.14196887911501765
-0.13032270541857247
-0.1057707665629031
-0.06891161243305757
-0.024934443583740185
0.018736975353668885
0.05508373626929719
0.07760292275668863
0.08236229615982708
0.074521617688735
0.06610634026814331
0.0663247591036471
0.07586535829572046
0.08751340176898191
0.08927044436306243
0.07416780725532118
0.04440768601933587
0.005384840222741098
-0.036514982075221025
-0.07385970381348654
-0.10031665252955786
-0.11339689889827716
-0.11401398170528312
-0.10632843813552909
-0.09417893046645037
-0.07857798758457336
-0.0600431555904874
-0.03929657877368788
-0.017231536960979565
0.005135215815901107
0.026721317097487086
0.04644435824595197
0.06328920867505074
0.07637227936073067
0.08499998634017299
0.0887140697580294
0.08732244937725854
0.08091244711244852
0.06984539385282279
0.05473260833172714
0.03639424873054252
0.01580542674493144
-0.005969522214559807
-0.02784484533193144
-0.048781615074632294
-0.06785026232535629
-0.08427957162273042
-0.09749319792010172
-0.10712916486505371
-0.1120918941442375
-0.10770973845969307
-0.08969818102240788
-0.058629281863321614
-0.018932298484329556
0.021719618138632286
0.05583124065962601
0.07789964639704816
0.08408609349220869
0.07447113613573839
0.05822399120610619
0.04733388076137137
0.04279517896256502
0.05411031167832376
0.07314995283292483
0.08844457894394249
0.08973161364429866
0.07551230304057995
0.048480383289818074
0.013230993069470526
-0.023368456399313186
-0.05343268096340838
-0.07142728164947167
-0.07578702026146024
-0.07089716101004158
-0.061813520471912034
-0.049707767181247024
-0.03496468741431258
-0.01815508949373481
-1.0406162961823784e-05
0.018616192630925954
0.03679935901837848
0.05359926873100749
0.0681230172268163
0.07958421512182537
0.08735841301025114
0.09102670761238357
0.09040599304195308
0.08556229452933546
0.07680622313174261
0.06467037950673762
0.04987094938456606
0.033256876862213
0.01574905536194749
-0.0017219599852069246
-0.018278000961959057
-0.03314831428592321
-0.04571218105181623
-0.05552851771605067
-0.062349423141332995
-0.06496965689024832
-0.057874470821041406
-0.03707841901251947
-0.005759590785508591
0.029129081521559238
0.059408242879912844
0.07905388152747685
0.08479342949862097
0.07551572478212121
0.05444067817818684
0.03269362451979263
0.020773743076911044
0.01188233216094188
0.023530001695646896
0.04680512685165882
0.0720277321467767
0.08768039292790356
0.08961682584724165
0.07800870598299592
0.055190499803187174
0.026142925094854493
-0.001639940799813531
-0.021115110438670263
-0.028745935540861117
-0.028079087701770377
-0.024086410989163025
-0.01779842770070515
-0.009405251293075463
0.0007507265067276514
0.01218986608498978
0.024321826413686985
0.036482223042151145
0.047977157957680705
0.0581324285444011
0.06634285333576312
0.07211885552065085
0.07512412695635079
0.07520249904554521
0.07239058076639403
0.06691495460396935
0.05917427207057255
0.04970737313942453
0.039151009236885255
0.028189261840589105
0.01750198993105539
0.007714287702938438
-0.0006472749371472932
-0.0071874371831285155
-0.011662663614498678
-0.013987260945562754
-0.013190681081783147
-0.0044108497988923885
0.015097500641551931
0.04062815801736891
0.06466002403120476
0.08036370943131087
0.08406340021514636
0.07472804650596941
0.053420168475527344
0.025202629566860216
0.0012077228673921456
-0.010419929286445547
-0.02277899700647564
-0.012040684399338272
0.012156536138373714
0.04262161564695373
0.0684018215116532
0.0840116893765669
0.08777234377081915
0.07993680266782562
0.06301431211746454
0.0425302301876232
0.025171551453161863
0.01535846719969991
0.011193877169944567
0.009051046862067395
0.008300240355988175
0.008966673660088065
0.010968417836141308
0.014120548228185736
0.01814791487188411
0.022706238637584707
0.02740997135996005
0.031865080666622754
0.035703372697517756
0.038615751585079766
0.04038054869680525
0.0408845051065488
0.04013369951629613
0.03825344461381488
0.0354768006731101
0.032122573828677004
0.02856505639774539
0.025198260649729992
0.022398411373790995
0.020488497784186627
0.019708358473165072
0.020193734520067192
0.021965980250209346
0.02493341462205793
0.02957714755398869
0.03891112042323997
0.05390474316857677
0.06972077193091886
0.08011738982323525
0.08078866246436152
0.07051414683678055
0.05000204172022791
0.02163136003408075
-0.009007928775228425
-0.03226170685609152
-0.042600015927090326
-0.05707144420551022
-0.048109615347541115
-0.025897297610697097
0.005026124239058274
0.03560572975389912
0.06023727706244215
0.07623776796047829
0.08235742554115452
0.07877426631119187
0.06828268280439731
0.055743840321624924
0.04528450854626068
0.03694702675726176
0.0291899439540135
0.021898069484237972
0.015280856561797474
0.009491528201849462
0.004621797531862371
0.0007021138130216356
-0.0022931412887560025
-0.004435074004315061
-0.005825956238631479
-0.006582110828720553
-0.006816185253650934
-0.006620620306021443
-0.0060543530312848
-0.00513436967775101
-0.00383361523655169
-0.002085319966217457
0.00020601473417933974
0.0031483039058466345
0.006842374908326846
0.011360792334344665
0.01672883188179816
0.022909514550043305
0.02979499006056953
0.03720599397890578
0.04489975147048133
0.0528021445147023
0.06161764773713743
0.07054596609262494
0.07575204335639418
0.07338649196192928
0.06192480715561329
0.042107934554334855
0.015669980847408647
-0.014537867400424122
-0.04343067915212299
-0.06369137314671564
-0.07218501924906041
-0.08696240523601775
-0.08017797078109196
-0.06202365195877315
-0.03464720301250878
-0.004466683026597118
0.02370869053053336
0.046961014464962134
0.06323769438472157
0.07101759303306175
0.0704814176982932
0.06403286925873194
0.054701012863112686
0.044185724686302025
0.03300509151207669
0.02148506871349432
0.0099419971358528
-0.0013140517446682714
-0.011990193774520297
-0.021820553201769212
-0.030573640053886315
-0.038057617295683764
-0.044122709157918306
-0.04866112735421106
-0.05160477674313675
-0.05292129785270251
-0.052609372332768904
-0.050694315741751934
-0.047224729457412455
-0.042271104199434924
-0.035926525607473614
-0.028309639641053735
-0.019568410262190892
-0.009884927211179994
0.0005215611227310467
0.011394504503127309
0.022442733657692285
0.03334869580852035
0.043780750390011614
0.0532470597090374
0.06051833480859002
0.0635120263994145
0.059894189767944646
0.048345924515010845
0.029591974694956516
0.005551425177973942
-0.021671477986223722
-0.0493756219307282
-0.07359194825750032
-0.08959678678813969
-0.09614969729337783
-0.10906067409788159
-0.10438862753381428
-0.09130276739500309
-0.07008138106817423
-0.04433996339514741
-0.01757498859031206
0.00761145696564642
0.028980317799865204
0.04414199614587049
0.05142817798826247
0.05102142474329948
0.04461362576325589
0.03485498898460479
0.023623699341284565
0.011465208551583984
-0.00129996085315392
-0.014313983010787923
-0.027194502703672633
-0.03954919688457186
-0.050991863909557684
-0.06115880929295792
-0.06972481028083075
-0.07641678165206124
-0.08102556350770385
-0.08341356347768658
-0.08351929493753928
-0.08135815734888771
-0.07702005974719968
-0.07066442598689185
-0.06251346806869816
-0.052843786289646005
-0.04197683236738832
-0.03026886541985798
-0.01809953831056874
-0.005859269956528393
0.006063878401308312
0.017298822055521555
0.027506303244169233
0.03604436482977829
0.040709051326932
0.038894349034489024
0.029620179309615885
0.013448290381128585
-0.007606026006558684
-0.03121847743711979
-0.05536592773826665
-0.07783399104173357
-0.09597504011502347
-0.10746262709074797
-0.11236632779021018
-0.12108281665855596
-0.11807644652431563
-0.11000162110963517
-0.09588530500475761
-0.07683299476708909
-0.05489176370552245
-0.032056059145238035
-0.010325087506947536
0.007816314642687776
0.019888816630959337
0.024665796486367596
0.022728697684945853
0.016801883732405185
0.009095789567313096
0.000103132607463509
-0.009948036690328737
-0.02075827194040914
-0.03196669014359561
-0.04316642883450258
-0.053924373841300215
-0.0638041351720468
-0.07239079576612441
-0.07931505625670265
-0.08427575374438807
-0.08705807029578763
-0.0875465832114185
-0.08573222509385853
-0.08171270691120242
-0.07568659468741011
-0.0679417131929515
-0.05883894075998679
-0.048791832874341884
-0.03824472301463106
-0.02764928664210112
-0.01744111082717007
-0.008018593587449212
0.00027633561549136583
0.0071735158944789094
0.012159150247060475
0.013138084686457779
0.007749588523521152
-0.004143924900173914
-0.021084930389424245
-0.040743543082583975
-0.06096380753352782
-0.08003529630377966
-0.09632949068312764
-0.10843334237951764
-0.11595931882963782
-0.11976093740743549
-0.12214569929883463
-0.12012265090407667
-0.11613468431991295
-0.10853537931362445
-0.09650369081842546
-0.0807940478754002
-0.06272662313839764
-0.04384612690316816
-0.026189659408030568
-0.012110084520327032
-0.0032890722524115405
0.00017707207688105186
0.0003165715413452788
-0.0012597603816155893
-0.004324147402621428
-0.008799601895273724
-0.014511251894202482
-0.021192057784651594
-0.028496345119539804
-0.03602026571178619
-0.0433278428264205
-0.0499810855312814
-0.05557117475930388
-0.05974886250066197
-0.06225085137043387
-0.06292039210825531
-0.061719946339941066
-0.05873520554589932
-0.054169696134378234
-0.04833080113250085
-0.041607924638181915
-0.03444462570243494
-0.027307258709437184
-0.020652369924441933
-0.01489516920399236
-0.010382087932174064
-0.0073690301393803045
-0.006006769682727479
-0.00650064185053012
-0.010059262986720914
-0.018234862390874136
-0.030831137841730017
-0.0463527603706031
-0.0628532980620674
-0.07866206631279041
-0.09245524397327429
-0.10314743786312064
-0.11031493214474793
-0.11495321160227599
-0.11830019915118398
-0.112824193529039
-0.11103894295058275
-0.10969472356809737
-0.10692439648949706
-0.1006794954838969
-0.09075252076329082
-0.07787430498167575
-0.06309469384885566
-0.04775708407685574
-0.033513480398865314
-0.02178696671181352
-0.012975616289097314
-0.006198235687934142
-0.0009508760476380043
0.0026528013052003075
0.004539118213586342
0.004753955150359063
0.003460471521999554
0.0009271162970739855
-0.0024930685163471362
-0.006390721351543941
-0.010333808209497104
-0.0139035438687062
-0.016730223231746184
-0.018525365108192072
-0.019107419396200948
-0.018419064797894704
-0.016533708037739462
-0.013650952725370695
-0.010080835123303107
-0.006218302496734082
-0.002509592762156296
0.000585758412486595
0.002634706026481864
0.0032680704640080547
0.002212265203461505
-0.0006872984992344002
-0.005453206156305257
-0.011950333573414296
-0.020246639300582046
-0.03083931291908341
-0.04346485678538534
-0.05705196522626493
-0.07034794277034209
-0.08226048502831816
-0.09184173423346083
-0.09844705142437114
-0.1023422567908999
-0.10536035969793453
-0.10885507028430615
-0.09495988630254465
-0.09276477196603639
-0.09250262033112128
-0.09238705561542812
-0.08981268552905923
-0.083998972397498
-0.07524763918669229
-0.06418529480725015
-0.051482248688287935
-0.03795525060555533
-0.02448557693354302
-0.011592137404852543
0.00041814138393737426
0.010967023526201389
0.01967019248949655
0.026359767396301984
0.031007039884116492
0.03372040343171535
0.034732492188748784
0.03437715913958876
0.03305818710719448
0.031212232667441737
0.029269011958575147
0.027611939697498145
0.026542520940150124
0.026251625145066113
0.026800340398242622
0.02811229973489571
0.02997854461169701
0.03207513699706481
0.03399196149123516
0.03527066952526558
0.03544801550902728
0.034100693175340466
0.03088732911884219
0.02558342679312304
0.018105972767989975
0.008525361035219963
-0.002782660494240594
-0.01497164891648597
-0.027553206906712806
-0.040201708901400984
-0.05231985429322002
-0.06332146710024135
-0.07262858262924576
-0.07961762364675783
-0.0839648672894499
-0.08633086813242964
-0.08890654554334862
-0.09299562338933595
-0.07127094182434968
-0.06823266485231921
-0.06772500746441378
-0.0682124511883806
-0.06708066490232031
-0.06333731802791734
-0.05703308725617658
-0.04849860216985866
-0.03792501960529804
-0.025500413907205716
-0.011660682539006265
0.002966205723980726
0.017196221057663115
0.029792681489666368
0.04026484125917723
0.048438765344703295
0.054297607431662
0.057976634417445584
0.059746038004792536
0.059983236228182
0.059136871254640094
0.05768536005501573
0.05609337449406331
0.05476976414325141
0.05403007345351512
0.05406683187115012
0.05493034662624912
0.056521697928480066
0.058599397228001324
0.06079928540152861
0.06266662387697637
0.06369786005740359
0.06338804801549676
0.06128007560278971
0.05701009649006015
0.05034554049030819
0.04121116038541586
0.029701439959049655
0.016264337083265815
0.0021726918987018807
-0.011403624700297581
-0.02396216716795268
-0.03517862927945009
-0.044903699693532854
-0.05291764944015713
-0.058840384607416786
-0.06254526225532986
-0.06482650126568941
-0.0678451680260803
-0.07275562147317888
-0.044860258359526624
-0.0408120546593562
-0.03919547149883216
-0.03880290664555017
-0.03739372131757419
-0.034045622126383214
-0.02871973988771006
-0.021592803944251168
-0.012633563875736959
-0.0017532630199180326
0.010788384453657688
0.024224736158337958
0.03698734524152233
0.047729544460646894
0.0560277950566243
0.0617884009981643
0.06508990073102293
0.06617282875376812
0.06541649214722979
0.06330480597792894
0.06038421716693942
0.05721723946636279
0.05433491595959202
0.05219219840076305
0.05112937006396329
0.051342381344665296
0.05286470021430324
0.055562303446984415
0.05914265899753177
0.06317748302465827
0.06713803554663599
0.07044008273151196
0.07249468711210424
0.07276070827493566
0.07079339849164562
0.06628506185081108
0.059093563139008064
0.049256528663046674
0.03713021034174256
0.023917705397424518
0.011055927972965287
-0.00071206367293794
-0.011087404163278787
-0.02007297125230643
-0.02761507082754284
-0.03347449430997296
-0.03760103777961152
-0.04071334870210361
-0.04466049242445402
-0.05038601593804428
-0.018731764617785866
-0.013762754684987284
-0.010714266658167758
-0.008728445177087086
-0.006149574233159308
-0.0023050205034295377
0.0028101327257528705
0.00904749135444204
0.016435997157329678
0.025031861866208874
0.03452410068019942
0.044046463742341585
0.052119705019225776
0.05770475787410549
0.06056060378699104
0.0607311966192205
0.05844298951807335
0.054089001431043074
0.0481991856613899
0.04139985091182825
0.03436579088776582
0.027768549372822564
0.02222538354602759
0.01825232188783813
0.01622479991884615
0.016348604498364967
0.01864321087608098
0.022939073430369925
0.02888910114979286
0.03599394201068136
0.043639899160636896
0.05114586694401358
0.05781643207807069
0.06299599171315025
0.06611966676745314
0.06675595612789154
0.06463796735805857
0.05968045321780188
0.05204281796024122
0.04253435549846688
0.032465553162556504
0.022746436215812866
0.01379758589014983
0.005687593676148566
-0.0015239628263088731
-0.007634164348572826
-0.01256665512408283
-0.016822734201008292
-0.021769722479926513
-0.028102558393672046
0.004594849430328359
0.010200532725202813
0.014523370246047287
0.018083148106619384
0.02189417502239559
0.026304486293241825
0.03121448690591043
0.03642018928039377
0.041816547824182926
0.04726951937792403
0.05234170607430181
0.05619053370809014
0.057732084353324234
0.056402022984804304
0.0521736688320438
0.04524528221861486
0.03600056311869527
0.024987798021178995
0.012885312560038035
0.0004561882056964149
-0.011504225095620255
-0.022223208983415142
-0.031004120666000327
-0.03727441587370953
-0.04062493007847821
-0.04083766519015452
-0.03790064074942269
-0.03200860060536422
-0.023549518954549948
-0.013077500696779779
-0.0012744098702747553
0.011098003601397712
0.023250599110758365
0.034420902202379214
0.04392381041179188
0.05119499959814736
0.0558238871508416
0.057573753190687305
0.05638200904875465
0.052575497970387505
0.04707581190461818
0.04077571131469235
0.03421393912519501
0.027625220998806713
0.021178110416911436
0.01511669992618291
0.009607792659264109
0.004430745634276769
-0.0012428326629142007
-0.007840405066050226
0.023324777653438808
0.029174875446816524
0.03428370321714249
0.038870276244157564
0.04337446222614795
0.04783861609728578
0.05204505929421552
0.05570859400429751
0.058569311622586724
0.06031011934048585
0.06043209440682921
0.05825965769069679
0.05319055470764853
0.045078750701122085
0.03407567696184522
0.020511924849889906
0.004897252033987291
-0.012103367248689758
-0.029707176382082225
-0.04706096960868663
-0.06329503205852548
-0.07757855629438365
-0.08917279180355354
-0.0974776693867227
-0.10206912499988186
-0.10272467930653752
-0.09943592232697519
-0.09240723682169408
-0.08204127367494861
-0.06891174516406938
-0.05372635150386498
-0.03728085564046851
-0.02040999248775498
-0.0039364530376561
0.011376922923056462
0.02486862502723625
0.036011243543852295
0.04443369464887678
0.04989528810991601
0.05234347447115893
0.05223638536446687
0.05025418088519973
0.04693699789852051
0.04264624061526303
0.037669387682487336
0.032316760010075926
0.026858118990495398
0.021339041987709174
0.01542661667268774
0.008956067369395953
0.03648027573782706
0.04216311977265348
0.04742203283447991
0.052235945478853116
0.056622433676403634
0.060405197044697656
0.06328568599092456
0.06492672984801974
0.06498102483439183
0.06306222195083973
0.0587339670364686
0.051571789327677336
0.04136036689302948
0.02819891760393366
0.012346443840599873
-0.005783114125564986
-0.025611823154404682
-0.046423628765117714
-0.06740157200800286
-0.08767449399465982
-0.10636878944956957
-0.12266092907894255
-0.13582682942041596
-0.14528443421711545
-0.15062673157603437
-0.1516434243051282
-0.1483304462556008
-0.1408869340699739
-0.12970052790546796
-0.11532165151039749
-0.0984297513441712
-0.0797924517839343
-0.06022201911329523
-0.04053092694360248
-0.021489668702949258
-0.003790095321923526
0.011984953738943201
0.02538381424505287
0.03606732578028215
0.043792897153990706
0.048648905331198526
0.050998913072935935
0.051243752307790824
0.04974945872240983
0.04685300971945592
0.04289986297874965
0.0382245812981453
0.03306202037442843
0.027455180465181146
0.021468912694069697
0.04386593879623764
0.049023848839235704
0.05381813110743233
0.05806944350104879
0.061567517769955095
0.06403946825317659
0.06517353127251725
0.06464323715630436
0.06211985197323394
0.05728450567180989
0.049859591805834255
0.03965946300876581
0.02667018166996561
0.011055849503788665
-0.006890150732044432
-0.026729779498134692
-0.047883724778893695
-0.0696564632873003
-0.09127148509096032
-0.11191427217539453
-0.13077903578299888
-0.1471152275541118
-0.16027044851839545
-0.1697263030504145
-0.17512544043248005
-0.17628819209199276
-0.17321858539710336
-0.16609954489974252
-0.15527883056316094
-0.1412460166880776
-0.12460351729839263
-0.1060327837262119
-0.08625833043750472
-0.06601185069596413
-0.045998315337767444
-0.026865659759331206
-0.009179575852723427
0.006596158534250274
0.02010287895180165
0.031074980959301102
0.03941091166635142
0.04518674998254463
0.0485845593634915
0.0498502219709833
0.04926766506978146
0.04715085035773785
0.04382997526445178
0.0396184685609586
0.03477494809539417
0.029531752616108246
)
;

boundaryField
{
    "(inlet|outlet)"
    {
        type            zeroGradient;
    }
        "(front|back)"
        {
            type            empty;
        }
    "(top|hills)"
    {
     	type            zeroGradient;
    }
}

