/*--------------------------------*- C++ -*----------------------------------*\
| =========                 |                                                 |
| \\      /  F ield         | OpenFOAM: The Open Source CFD Toolbox           |
|  \\    /   O peration     | Version:  v1806                                 |
|   \\  /    A nd           | Web:      www.OpenFOAM.com                      |
|    \\/     M anipulation  |                                                 |
\*---------------------------------------------------------------------------*/
FoamFile
{
version     2.0;
format      ascii;
class       volScalarField;
location    "0";
object      nutCoeffs8;
}
// * * * * * * * * * * * * * * * * * * * * * * * * * * * * * * * * * * * * * //
dimensions      [0 0 0 0 0 0 0];

internalField   nonuniform List<scalar> 
1000
(
0.14790809959663082
0.1635792666792371
0.17390704525514916
0.17665747041445318
0.1733479265149999
0.1658605509279415
0.15517751499643814
0.1421989549447431
0.12893555561130943
0.11825617041529006
0.11264071421247412
0.11354044847273417
0.11852614330753296
0.12368668382190157
0.12804789863725996
0.13152594900474904
0.13406759771096274
0.13565375038392505
0.13629888234756007
0.13604664926564644
0.13496278644072404
0.13312641722705834
0.13062142640121538
0.12752881190845675
0.12392081852199414
0.11985773649569702
0.11538641109705937
0.11054185307472283
0.10535012834081937
0.09983318253816188
0.09401471693708283
0.08792580653929137
0.08161078152799625
0.07513075273428613
0.06856503894416559
0.06201020347659446
0.05557575650798071
0.049377711938139245
0.043696134801817076
0.0392167929293608
0.035736658323610906
0.031717672945417386
0.025307117774736862
0.015307234131160728
0.0016620781792149643
-0.015019113629793062
-0.03346267230762792
-0.05057190240577343
-0.06038859087031792
-0.06002250453701716
0.15060295447080108
0.16725431078778025
0.18036977088440104
0.18749951440071744
0.18907132787405936
0.186246173545943
0.17967612460120422
0.17005976631034161
0.15926655737414452
0.15026759409408746
0.14590912876224243
0.14797512816090233
0.15402975664957494
0.16003368018183584
0.164972817019065
0.16873979037581963
0.17126335768272374
0.17251460536900545
0.17250853370221678
0.17130081787597218
0.16898050525966954
0.16565973188055041
0.161462678712052
0.15651454293628367
0.15093277283456813
0.14482099706630394
0.13826575550137213
0.13133725739539526
0.12409206883325838
0.11657830415124698
0.1088423770433
0.10093483574347284
0.09291690313734216
0.08486372965573324
0.0768654953334802
0.06902585349485413
0.061457049427170125
0.054273095805556816
0.04761115037448437
0.04152492669113386
0.03527532726371294
0.02735951098602025
0.016398479768531295
0.002084813778146364
-0.014860079114162816
-0.0334652447689532
-0.05239400910967581
-0.06872773423546465
-0.07702614557969396
-0.07507083367791569
0.150831873839382
0.16808434188454216
0.18347966005639457
0.1945910812708122
0.20097839088590616
0.20312359519285114
0.20132095031020378
0.19601860814461078
0.18880905384448582
0.18250878082410668
0.18004298743575028
0.1833208121721898
0.19006070215881007
0.196424336988346
0.20144925817103998
0.20502138496901556
0.20706509727516384
0.2075507537527081
0.20649770478455065
0.20397264763447376
0.20008307303513134
0.19496709357030226
0.18878166742777003
0.1816899615222283
0.17385049213896542
0.16540926793602242
0.156494179433483
0.1472145980084393
0.13766287206788477
0.12791888760456574
0.11805668123760493
0.10815018628509272
0.09827973261748721
0.08853552065713036
0.07901842455871223
0.06983859940908466
0.06111052937738162
0.05294601678139008
0.0453058830234494
0.03746484989416604
0.0281630931133031
0.01628790598404604
0.001274137377688043
-0.01629155059280789
-0.0351947122451329
-0.05440479592410463
-0.0727251117318388
-0.08751263232139699
-0.09386404173010589
-0.09015296177617299
0.1488098194601426
0.16625554168618673
0.1832901699225256
0.1977027668031713
0.2084458569187254
0.21542756314441677
0.21859676288221716
0.21812853761130804
0.21523815360709894
0.21235851350548612
0.212197296109413
0.2165563909954831
0.22345781389588992
0.22958170511422224
0.23410604535890459
0.23693016043678938
0.2379903698504126
0.23726693107767174
0.23478786978506616
0.23062876404782975
0.2249082808303228
0.21777984249595153
0.20942125176028234
0.2000224703090187
0.18977462389450023
0.17886075372694396
0.16744842614296584
0.15568767796137675
0.1437098529218867
0.13163084676762357
0.11955599276736253
0.10758488596101902
0.09581758383026595
0.08435800258625827
0.07331529518649342
0.06280325089669227
0.05293629571380519
0.043823666235021964
0.035248310822549284
0.02572230542807929
0.013614682867462188
-0.0015622293468705512
-0.019500244853724966
-0.03893267892719088
-0.05843398349012994
-0.0770848873072727
-0.09389615394055373
-0.10651444750213404
-0.11057373091547015
-0.10498181070908978
0.1448619589151522
0.16209754739631296
0.18006863456570782
0.19690427324017845
0.21121035453692347
0.22247287945618055
0.23034935469733295
0.23474573082048292
0.2364361737105791
0.23729241357929412
0.2395516361766286
0.244709175397874
0.2512097569603948
0.2564955819863075
0.2599515481296932
0.26150704180500955
0.2611235057947478
0.25879932192923294
0.2545736493754729
0.248527795722773
0.2407838658385623
0.23149995219239033
0.22086312071589392
0.2090795960847775
0.19636486863873617
0.18293427702427126
0.16899397446097883
0.1547359925640338
0.14033439581616644
0.1259450088025525
0.11170776826499712
0.09774933424751095
0.08418856106701167
0.07114001589554216
0.05871617532173886
0.04702894747437453
0.036187611424751374
0.026295413257928626
0.016979432847594768
0.006126475691010717
-0.008074972340046725
-0.02543609500755329
-0.04491823147523147
-0.06483240016101315
-0.08372501563765439
-0.10084560694879685
-0.1154083181219423
-0.12533968563008135
-0.1268247383176316
-0.11926928075914979
0.139362590705119
0.1560205184202036
0.17423912136352163
0.19253267332245932
0.2093813519212884
0.22402142899605157
0.23591080013972493
0.244724869530824
0.25077699388789676
0.25526497985637353
0.25977681361577115
0.265366888706174
0.2709739706954295
0.2749331773779467
0.2768686125603012
0.2767485414916607
0.2745662788868581
0.270342308249803
0.2641276246891433
0.25600693822159293
0.24610088120614002
0.234565794658221
0.22159114839164423
0.20739356048393118
0.19220880447665267
0.17628282031870296
0.15986062843113857
0.14317905691255284
0.12645810674261487
0.10989689630959286
0.09367226097121543
0.07793858130807606
0.06283175559575525
0.04847291959504719
0.03497227053815613
0.022433022982880853
0.010952552087737896
0.0006222854263352136
-0.009053823077498784
-0.020630220586146705
-0.03594387490830649
-0.05421574230076261
-0.07388619657563514
-0.09304720340522873
-0.11030764129080808
-0.12508381046181594
-0.13676775507494648
-0.14356455701691379
-0.14224848877251203
-0.13269842778424373
0.13266607328666874
0.14843953547883063
0.1662987340229967
0.18511548764706312
0.2033952980563304
0.22028392986830175
0.23515344963450746
0.24752454143565933
0.2572875831902771
0.26493280654750617
0.271304968077804
0.2769474638044914
0.2813014246842156
0.2836082245867663
0.28372905038604435
0.2816710200005793
0.2774597011169414
0.27113858154406717
0.2627716506951417
0.2524481378430268
0.24028814177683055
0.2264466001982807
0.21111567576016052
0.19452211072466272
0.1769218656257178
0.1585913006197278
0.13981472484246316
0.12087369957582754
0.1020347183901073
0.08354045375039887
0.0656043142700039
0.04840722136394612
0.032100343472353854
0.016808448321631395
0.0026356197460830257
-0.010328302349080562
-0.022002900007884702
-0.03231431286041929
-0.041845596911949855
-0.05341207071535399
-0.06878088531534504
-0.0867288941447439
-0.10536800811801803
-0.12270627005645154
-0.13745290522196998
-0.14917164755312956
-0.15741425249355392
-0.16068620851767237
-0.15640811037871163
-0.1449005865044891
0.12504749460028478
0.13970513090897935
0.1567263093375791
0.17526155322697803
0.19391271107014194
0.2118498707240344
0.2284662688424221
0.24322750591026576
0.255697954054407
0.26571695694232195
0.2733813911723439
0.27870414506550073
0.2815707390622338
0.28204469363585827
0.2801965567997649
0.27606580683200405
0.26970675883497097
0.26118588089770084
0.2505832220739497
0.23799818873673054
0.2235570711561804
0.20742036398223426
0.1897881493747744
0.1709007332040738
0.15103482382334482
0.13049528931909535
0.10960158217012567
0.08867482240178236
0.06802206723404823
0.04792409773123748
0.028626491805756948
0.010334130896766852
-0.006788023892343727
-0.02261141513725209
-0.03703750978305995
-0.04998899236817997
-0.06140263784767034
-0.07122346320899048
-0.08008460229701314
-0.09090014229244847
-0.1053152377578092
-0.12181671948556133
-0.13834175774625113
-0.1529063905441325
-0.16434369797682521
-0.17235558327681116
-0.17665662786412234
-0.17609490843681244
-0.16878887348301233
-0.1554468345031071
0.11667185318696559
0.13006044277631043
0.14590889873192434
0.16354761072768598
0.1816790907981094
0.19955229962103868
0.21665258009638502
0.23248274157238175
0.2464149477833488
0.25777770431603164
0.26600740800313216
0.27061549926575995
0.27182398081101855
0.270367090694009
0.2664823851322016
0.2602332145909628
0.2516980324301225
0.2409660015964078
0.22813761450813091
0.21332988245240647
0.19668449517725278
0.17837593100135649
0.1586186541367702
0.1376686829674504
0.1158214773122083
0.09340377601170803
0.07076025214190262
0.0482393333252889
0.026176488386229706
0.00487994653046914
-0.015380288535538102
-0.03437944561908774
-0.051938749259878327
-0.06792251396087323
-0.08223171343528539
-0.09479490215364803
-0.10555990422299517
-0.11448694143126331
-0.12221925354479873
-0.13161831167493554
-0.14416926975184063
-0.15821000461728746
-0.17163209804661894
-0.18254483188440215
-0.1899435428829071
-0.19367988730689562
-0.1936509698757263
-0.18908731882286892
-0.17882113466027813
-0.1638634992683831
0.10760366498794514
0.11963938728372579
0.1341094164495908
0.15043558950308095
0.16738871427527208
0.18429770637852416
0.2007603382625973
0.21637080595082508
0.2304369639819652
0.24196447789806397
0.2498985019645325
0.25333912923418805
0.2527215115708666
0.24926042078950864
0.24331229693901668
0.23495770238443028
0.22429517605094715
0.21143605712608612
0.19650388308192288
0.17963847549618295
0.16100269744631407
0.1407901081584002
0.1192312977773812
0.09659617191030533
0.07319195163367967
0.04935619677404944
0.02544447138865392
0.0018170727598523229
-0.021177437094838096
-0.04321621312171553
-0.06401339084936289
-0.08332831737108887
-0.10096732941462194
-0.11678217293317672
-0.1306650254528038
-0.14254048713485498
-0.15235820834136374
-0.16008645618300354
-0.16633625580187378
-0.17376134984676136
-0.1836403525407994
-0.1942942017085254
-0.20370286548200525
-0.21017610524707672
-0.21293178484341793
-0.21199237376730734
-0.20745105375980355
-0.19893053687905854
-0.18593650628764358
-0.16967523169402338
0.0978555109913382
0.10850742242475601
0.12148675200518726
0.13624860680111195
0.1515973951242984
0.16691336520431105
0.18188448555589945
0.19620162917395262
0.2091933373384071
0.21972578882497992
0.2264675414144177
0.22826116896337326
0.22565344000905038
0.22013675032007457
0.21213785183540604
0.20175138911288024
0.18909330874327898
0.17429531715310603
0.15750335802325902
0.1388796774458117
0.11860791605085377
0.0968983891157268
0.073993561343426
0.05016964044955154
0.025735194421126543
0.0010256307109190923
-0.023606951484790837
-0.04780508672870717
-0.07122014230094442
-0.09352481946441549
-0.11442429650710442
-0.13366444846064435
-0.15103537466529762
-0.16637161453576596
-0.17954973251372128
-0.1904830078875072
-0.1991159245183911
-0.20541962242233064
-0.20993132227721734
-0.21493603288083174
-0.22145025411177982
-0.22791595680815696
-0.23255821004103688
-0.23401339920220018
-0.23178190255281222
-0.2260620231159185
-0.2171283260126255
-0.2049613056511604
-0.1896453211137629
-0.1724677860053912
0.08745964891700397
0.0967306873955202
0.10815936055734736
0.12121229895487726
0.13471513298573373
0.14806827148089566
0.1610084393570126
0.17329356270828344
0.18430702188029335
0.19291276944372077
0.19771076256200648
0.1974732304987803
0.19279679338159114
0.18526246491597473
0.1753221123579502
0.1630835211453456
0.14867776971420388
0.13225359213428026
0.11397481449086591
0.09402067487193844
0.07258852400558674
0.04989766125422262
0.026192892336875988
0.0017463026824809024
-0.023143466211924868
-0.04815449411566875
-0.07294927745717017
-0.0971827265466877
-0.1205138577826321
-0.14261691662959336
-0.16319101537783207
-0.18196974133868019
-0.19872603950407122
-0.21327543791472464
-0.2254767770521974
-0.23522995867470212
-0.24247347905303582
-0.24718159432488743
-0.2497838794317496
-0.2520535914969886
-0.25470233210001847
-0.25643970191977916
-0.2558957219649667
-0.25214163864610634
-0.24498633417388735
-0.23477644124521968
-0.22192257023650294
-0.20669112255291447
-0.1896132162120974
-0.17195595420703563
0.07653756371881189
0.08444931481526405
0.09428888626461443
0.10554230626974917
0.11707523669766587
0.12829402608345852
0.1389468732261611
0.14881984474690046
0.1573521859120949
0.16348847293733143
0.16591873494472723
0.16351458520038167
0.1568913492346456
0.1475651323707726
0.1359743862306136
0.12223837071205798
0.10649947922786027
0.0889177309298066
0.06966715566028207
0.0489348651029032
0.026922074074626375
0.0038462874650592852
-0.020055405767533292
-0.044524842893352866
-0.06928187732495455
-0.0940254984971804
-0.11843852924572773
-0.1421929748731011
-0.16495894139393089
-0.18641407848162794
-0.20625336607272915
-0.22419910244279195
-0.24000846838611428
-0.25347975063641914
-0.26445625670534506
-0.27282785717171076
-0.2785307910254849
-0.2815467980212252
-0.28217890414809427
-0.28160100355634266
-0.280217754726872
-0.2771341348551428
-0.27150081574885204
-0.2628703793961218
-0.25133672390832007
-0.23734133405393892
-0.22136943914287846
-0.2038840440610038
-0.18571801932203133
-0.16803814232036654
0.06534196691175338
0.07192772914856344
0.08015079150042201
0.0895397992146659
0.09904378513623051
0.10808436600131778
0.11640220755545379
0.12378374731271445
0.1297172993956792
0.13327142851371016
0.13332252574241424
0.12895257373872612
0.12077268860653492
0.1101252320919879
0.09740557982965939
0.08273944432106617
0.06627379019483078
0.04817128534816668
0.02860655031428154
0.007764217039998594
-0.014160746327574789
-0.03696152220326439
-0.06041652947054512
-0.08428709798406166
-0.10831564739154968
-0.13222470970934158
-0.15571939722681638
-0.17849032990249586
-0.2002209028569282
-0.22059503640101893
-0.23930726028431443
-0.2560734024861139
-0.27064019919002763
-0.28279435181357343
-0.2923694543175864
-0.2992503601320669
-0.30337568579587926
-0.3047378970900722
-0.30351183127506387
-0.3002694195655942
-0.29515178372591483
-0.2877275708423375
-0.27769674403993233
-0.26506245543692997
-0.2501404054707831
-0.2334080124485649
-0.21536746204552912
-0.19659070729461084
-0.1780716120133663
-0.16082309386063637
0.054255345669461705
0.05956223727680449
0.06616343643399049
0.07365335140278886
0.08111571178470088
0.08801431632677727
0.09408450940566201
0.09910546387851968
0.10261613850340565
0.10383242079113944
0.10186003606356898
0.09603259539504388
0.08692496774051868
0.07563913486432036
0.06250698962754894
0.04765224535406068
0.031217115494056206
0.013356960157674043
-0.005763231125279839
-0.025970615695300063
-0.047084259233237134
-0.06891376494906033
-0.09125628671788838
-0.11389400952955932
-0.1365915467154766
-0.15909434568975833
-0.18112970831564706
-0.2024085133764986
-0.22263100071656158
-0.24149393750371023
-0.258699831710328
-0.27396828994979805
-0.2870460713455375
-0.29771812847353774
-0.3058162659718558
-0.31122584024025496
-0.31388990994965416
-0.3138107762235515
-0.3110497623674282
-0.30566118053066793
-0.2975951934822555
-0.28686351678528443
-0.2736489102387628
-0.2583109933201605
-0.2413077728537569
-0.22310541892301672
-0.20418029577826424
-0.18513800468560096
-0.16700882328448077
-0.15062287657164616
0.04374137483118365
0.0478395504014281
0.052859747959530655
0.05847560243510768
0.06394629475298655
0.06880961565190905
0.07281266957069027
0.07573723691012962
0.07718596785902669
0.0765372054327988
0.07313187362430489
0.0665404389224008
0.0572594734201985
0.046118973371923534
0.03337568814470067
0.01914187156092519
0.00354504471421852
-0.013276209578776087
-0.031175123401963756
-0.04999776856893588
-0.06958231955499175
-0.0897574319837685
-0.1103395847958551
-0.13113048387916942
-0.15191491246757852
-0.172459431933359
-0.19251325199925928
-0.21180982843147447
-0.23007197969638557
-0.24701790352656852
-0.2623700843095676
-0.27586495952235435
-0.2872632946391419
-0.29636069949016425
-0.3029970311425429
-0.30706381943825606
-0.30850961931444537
-0.3073426293977716
-0.30353965994380383
-0.2967894595123551
-0.2869308373614602
-0.27431309215486305
-0.2594611803960075
-0.24296083723176845
-0.22533389485293073
-0.20700483211639678
-0.18839826546063135
-0.17009304923325927
-0.15305314532583142
-0.13791982612603895
0.03426169555917601
0.03725350950123065
0.04080310880244751
0.04466427773657216
0.0482887857404061
0.051312597890117356
0.0535151448256403
0.05469981554613889
0.05455021702584484
0.052613996334299695
0.048449789608346325
0.04181719177045584
0.03309526501317126
0.022841722219829805
0.011235782588842839
-0.0016302451605557165
-0.015651381912983833
-0.03071323511317297
-0.04669362185846611
-0.06346246002164452
-0.0808806862005204
-0.09879804917017562
-0.11705083155316341
-0.1354597118944005
-0.1538285709945946
-0.1719442234737068
-0.18957793197876396
-0.2064878735405755
-0.22242365023586275
-0.23713252524356515
-0.25036625420051084
-0.2618899785791008
-0.2714908257130396
-0.2789870684190337
-0.2842364465738976
-0.28714336815409364
-0.28766438182491155
-0.2858112604400462
-0.28151674153888734
-0.27429463403777404
-0.2639484239921641
-0.25100648782765167
-0.23615510940876447
-0.22006375259120925
-0.20324667352017206
-0.18607030987537718
-0.16889334808319945
-0.15222233757367273
-0.13687742538600423
-0.12332381338042095
0.02618043794023019
0.02820350712728259
0.030469874543057867
0.03280493359014323
0.0348442613202549
0.03632983126454566
0.0370890059527488
0.03696384505768644
0.03572962536890016
0.03309547881463746
0.028802931138343764
0.022740553807303464
0.015150422863152876
0.00635020028069202
-0.0035515459458173603
-0.014487209684363195
-0.026379071223294203
-0.03914117433731595
-0.05267990463988016
-0.06689290656080181
-0.08166737741780741
-0.09687742019006716
-0.11238174123597774
-0.12802214568070217
-0.14362289656340305
-0.15899188857791235
-0.17392278252093518
-0.18819883198520196
-0.20159781934582313
-0.2138980215250287
-0.22488457256474936
-0.23435695826014225
-0.2421356437427915
-0.24806940691976054
-0.2520418537691442
-0.25397708210572756
-0.2538442530542913
-0.2516604096757162
-0.2473600970262224
-0.24047613233794535
-0.23084792400628637
-0.21901427310401214
-0.20564100711138936
-0.19134475350073538
-0.17657256241944375
-0.16162361878226372
-0.14678502462649948
-0.13245930626335553
-0.11927129572832754
-0.10753605872511128
0.019684602670647623
0.020905062324015383
0.022136111821340083
0.02326264973685412
0.024074835420929197
0.02441216472136308
0.024155047509733782
0.023192393845241518
0.021387211277781346
0.01858323773820996
0.014655726122144708
0.009564150275833561
0.0034242162004393603
-0.0036260486169895907
-0.011532648329073834
-0.02025286758289153
-0.029736381173817845
-0.03992641433647904
-0.0507592544368983
-0.062162600772918394
-0.07405297359646147
-0.0863325263640448
-0.09888648035204968
-0.11158152001316447
-0.12426543999992469
-0.13676882689476735
-0.14890836639758617
-0.16049166740984172
-0.1713230748781337
-0.1812101781562517
-0.18997035239343285
-0.19743707951180017
-0.2034655772901359
-0.2079380203993643
-0.2107679123945037
-0.21190379119513647
-0.21133205131995936
-0.20907871914918122
-0.20511952040006476
-0.19916361541971084
-0.19114333040280768
-0.18147485659160517
-0.17065781757855045
-0.15915081831887187
-0.14728882602837876
-0.1353007116805184
-0.12340089124743582
-0.11186975567663278
-0.10111140788473127
-0.09132044627508742
0.01474684323660649
0.015343330170631683
0.015810900992075733
0.016082412178815394
0.016063693543280695
0.0156719850668878
0.014835292742761554
0.013486486397750823
0.011557640412472108
0.008984848508489653
0.005722426220401446
0.001754911272261176
-0.002892898813221563
-0.00818916864046809
-0.014113819098572646
-0.020644449697376333
-0.02775412187238976
-0.03541178291035684
-0.043581488610420605
-0.05221995937399486
-0.06127329526470269
-0.07067318620006997
-0.0803335716929938
-0.09014834879009952
-0.09999102540758291
-0.10971660565772118
-0.11916536088131577
-0.1281689192310345
-0.1365567895521362
-0.14416400888271866
-0.1508378673739325
-0.15644391010561454
-0.1608706291509324
-0.16403293318097747
-0.16587459446728128
-0.16636968691950593
-0.165523567397794
-0.16337306814210156
-0.1599555517474499
-0.1552355850654223
-0.14926707554450125
-0.1422761403132397
-0.13452238166566777
-0.12625317458972868
-0.11767095757030643
-0.10893508921252974
-0.10018998738745102
-0.09158983586537513
-0.08331590916535284
-0.07546843131886567
)
;

boundaryField
{
    "(inlet|outlet)"
    {
        type            zeroGradient;
    }
        "(front|back)"
        {
            type            empty;
        }
    "(top|hills)"
    {
     	type            zeroGradient;
    }
}

