/*--------------------------------*- C++ -*----------------------------------*\
| =========                 |                                                 |
| \\      /  F ield         | OpenFOAM: The Open Source CFD Toolbox           |
|  \\    /   O peration     | Version:  v1806                                 |
|   \\  /    A nd           | Web:      www.OpenFOAM.com                      |
|    \\/     M anipulation  |                                                 |
\*---------------------------------------------------------------------------*/
FoamFile
{
version     2.0;
format      ascii;
class       volScalarField;
location    "0";
object      nutCoeffs39;
}
// * * * * * * * * * * * * * * * * * * * * * * * * * * * * * * * * * * * * * //
dimensions      [0 0 0 0 0 0 0];

internalField   nonuniform List<scalar> 
1000
(
0.003248019751555253
0.0035838418981047246
0.0031182693682144645
0.0021774172618203827
0.001312199650242523
0.0006987303300143818
0.000322313198004309
0.00012418644871673532
3.9000908198082276e-05
9.723835407380961e-06
1.6919584428583905e-06
1.049967376930305e-07
-6.769542043090512e-09
-7.400285740540236e-07
-4.747616888002024e-06
-1.5615258318814048e-05
-3.721664777110946e-05
-7.268554758633992e-05
-0.00012324801391657363
-0.00018727282408006029
-0.00025990379340729757
-0.0003335098171280374
-0.000398932012823953
-0.00044726109714746093
-0.0004716722610064269
-0.0004688327347714413
-0.00043952761293927734
-0.0003883713249080194
-0.0003227345788278968
-0.00025120078704767473
-0.00018194836343835057
-0.00012141309010602705
-7.349269526124032e-05
-3.9367206261786227e-05
-1.788837874079746e-05
-6.360168344519478e-06
-1.4669050511245025e-06
-1.1431778335423887e-07
1.2573333371072882e-09
4.808681688864918e-07
5.426637629114403e-06
3.148861089137703e-05
0.00012587649726126485
0.0003745535478879022
0.000879717710845579
0.0017287240740235098
0.0029315967092356063
0.004222258420522117
0.004841313844976737
0.004367654187514237
0.004345309152162301
0.004881469730799066
0.0044904064179612495
0.0034232646262370545
0.0022980276182012534
0.0013892484827327826
0.0007461127777694064
0.0003465262643438339
0.0001375681224984459
4.7085797116017385e-05
1.3805286065721642e-05
3.1270806919325672e-06
2.2272390442104687e-07
-3.425900673814354e-08
-2.4054571033476427e-06
-1.4047168654912669e-05
-4.3355811588857975e-05
-9.776863580285049e-05
-0.00018123732533827322
-0.000292128533744704
-0.0004222895762042521
-0.000557737118478731
-0.0006809468753172104
-0.0007742688211597207
-0.0008235968961694473
-0.0008213797531487701
-0.0007682030064387784
-0.0006725748830816202
-0.0005490060646745393
-0.00041490226944076243
-0.0002870643689454283
-0.0001786030598765344
-9.69962926322864e-05
-4.358738882454754e-05
-1.451669945715452e-05
-2.676369326237429e-06
-6.280887865403432e-08
1.2893244881762215e-07
2.3726656348551304e-06
1.1901938871018914e-05
4.6642169420953224e-05
0.0001540505056178095
0.00042470433217989766
0.0009682078862025326
0.0018607861289508774
0.0031224167298339518
0.004664456159981243
0.006097251556120416
0.006595416190991757
0.0058462488157442795
0.005494389601320788
0.006277272458771241
0.006076573468155922
0.005012357572765447
0.0036960323907904943
0.0024869569612085735
0.0015150382930753555
0.0008203749392768552
0.00039292017093577465
0.00016935663712149045
6.721232714597514e-05
2.439995877862881e-05
6.0990779255205755e-06
2.845840088655654e-07
-2.3580565599854796e-07
-7.585116079086852e-06
-3.738628302619911e-05
-0.00010464298682243793
-0.00021894295888506504
-0.00038038809087355033
-0.0005775836792753215
-0.0007884951680668488
-0.0009841802536816435
-0.0011346175668710502
-0.0012151871212031365
-0.001212190382184294
-0.0011260051527842993
-0.0009710386314514723
-0.0007724856422796224
-0.0005607021827373326
-0.0003646452033484647
-0.00020600759746376007
-9.55312858751126e-05
-3.225654179162874e-05
-5.692708372899957e-06
-7.493452360793112e-08
6.531647957105825e-07
8.554697790164471e-06
3.060741242876424e-05
8.234155159039134e-05
0.0002125578198683003
0.0005118206351287352
0.0011017391994475672
0.0020700997874808125
0.003417371638426624
0.005069426949237261
0.006835971777402503
0.008234204244721427
0.008462641568375227
0.007379930939253247
0.006563910198394128
0.007620598326535831
0.007730661435299354
0.006848842241694454
0.005488387075100686
0.004047855914467184
0.0027370317284305785
0.0016770070781563023
0.0009303934771550713
0.0004756468589999346
0.00022989244807091494
0.00010630607006925196
4.0478782057364575e-05
8.139946184088378e-06
9.953900793844805e-08
-1.5917003633024777e-06
-2.2745709159883967e-05
-9.00913366859227e-05
-0.00022305678872220282
-0.00042664222804963134
-0.0006875813899533842
-0.0009751730514881264
-0.0012468414521847686
-0.00145727495665443
-0.0015688199135143923
-0.0015605157019339866
-0.0014333319860072064
-0.0012101571718689413
-0.0009304248240830087
-0.0006407452613602908
-0.0003840262156742985
-0.00018995311081275318
-6.937395004212703e-05
-1.386205344164408e-05
-3.1638091909714126e-07
1.002475794789623e-06
1.7465834323365864e-05
6.664956180907212e-05
0.00015711954793864245
0.0003241676428623464
0.0006625323397117397
0.001297391790705256
0.002341492678979437
0.003808811383321595
0.005593223027632465
0.007520164931166332
0.009310314403688439
0.010443376634849505
0.010251784994817022
0.008805374395681007
0.007412903164137426
0.0087384912040734
0.009250361769115926
0.00874140615143402
0.007546109726834289
0.00603019100691709
0.004453012061111755
0.0030167733807952395
0.0018775717363808076
0.0010899899814858821
0.0006029574403392108
0.00032163314508540673
0.00014995197137335288
4.789588719362051e-05
5.893283791765041e-06
-1.4021945407873356e-09
-8.826754215773472e-06
-6.393481496771782e-05
-0.00019999519602668502
-0.00043143826784768465
-0.0007457770482043729
-0.0011040234754482485
-0.0014484809599818185
-0.001716196941109349
-0.0018545750450848588
-0.001834987289665148
-0.0016605181104858504
-0.001365542550649992
-0.001007049860386632
-0.0006500581798563029
-0.00035117543109927456
-0.0001448689603408707
-3.6262904713901756e-05
-2.143781657299019e-06
4.1841060433522506e-07
2.0601471649599986e-05
9.94569259161831e-05
0.000258560794797973
0.0005050413745198741
0.0008995615663141435
0.0015829466121052248
0.0026832752947997876
0.004255427538406293
0.006203250943035608
0.008304623052076682
0.010293548267327302
0.011836813736592703
0.012462741609375612
0.011741128365993583
0.0099461521376319
0.007927036235985842
0.009477868639158882
0.010421626019773563
0.010430948567132597
0.009621078582507001
0.008251224689242593
0.006574019550764754
0.004842949848892301
0.0033042852519814462
0.0021126838144168466
0.0012858481581591163
0.0007507877431471309
0.00039143863429865177
0.00015513751695217366
3.497957036860808e-05
1.2089801578019065e-06
-1.6346607815395154e-06
-3.9032889154459806e-05
-0.00016719775465104847
-0.0004154865973512976
-0.0007756240683801694
-0.0012011747483993702
-0.0016179263332072183
-0.001942781408617783
-0.0021060707567853525
-0.0020709461056814143
-0.0018440966251457836
-0.0014743727221945288
-0.0010394763142615364
-0.000624536095152683
-0.0002988475981624961
-9.751450876405762e-05
-1.3210873104542894e-05
-5.384358773137573e-11
1.2269700248003873e-05
9.737511570242036e-05
0.0003117010016069176
0.0006783081699843955
0.0011973534444627858
0.0019484212923770844
0.00309709208090311
0.004731496209912179
0.006808294880327024
0.009105917113968815
0.011297860382005618
0.013060359356680373
0.014073180028453912
0.014010103288207164
0.012732081659656664
0.01065739652471241
0.008047882391459435
0.009744567866289314
0.011074240226022722
0.011653699913896235
0.011390337043173193
0.010390673940041882
0.008840856592991168
0.006992501033179594
0.005144755663806718
0.0035475600083395274
0.002315026576340865
0.001433722820375544
0.0007970422648801825
0.0003536479824058958
0.00010349188036056932
1.0752284085986663e-05
-3.289302822250178e-08
-2.225196280528466e-05
-0.000140085831473124
-0.0004032874304728697
-0.0008110591273702859
-0.0013100535170353263
-0.0018076829627955697
-0.002197579496908401
-0.0023900503451064433
-0.00233857911625624
-0.002054119989425204
-0.0016024662736293896
-0.0010851980041179008
-0.000609905234233499
-0.0002587707838224672
-6.49113253023894e-05
-3.32758618803715e-06
1.4394031388056246e-06
5.359673567686947e-05
0.000256753058712703
0.0006848934669611988
0.0013610443594008561
0.002271257037076039
0.003491302511534199
0.0051696526559917855
0.007311890375343265
0.009752864176752519
0.012157899382127631
0.014140794768914293
0.015385354398174603
0.01566488034288696
0.01486160069531212
0.01310499192058746
0.010865708076644732
0.007783555205006091
0.009523906560231367
0.011125717785728883
0.012214980318666404
0.012544586102729545
0.012064250057046009
0.010855666780392185
0.009115781686575668
0.007137777371656096
0.005225964730119875
0.0035904041812023914
0.0023085872311037776
0.001327654670490317
0.0006230357841175291
0.0002054385738259163
3.1008543488660325e-05
4.0151899120416115e-08
-1.4085095152085174e-05
-0.00012857453694768454
-0.0004171818614973316
-0.0008879902354462667
-0.0014797730138335847
-0.002078686108175178
-0.002551200992321255
-0.0027838882538189563
-0.0027181075527443737
-0.00236862070484197
-0.001819862903025774
-0.0012006161885358122
-0.0006448290902194332
-0.0002507329970309131
-5.0705173227545376e-05
-7.442282215020506e-07
7.948033363269457e-06
0.00011912254586392123
0.0004720238603022226
0.0011628419384592645
0.0022166356125954815
0.003599353379675085
0.0053457960278297904
0.007529886919863094
0.01004184925860682
0.012600548705643514
0.01481121060386214
0.016305335840792766
0.016847572161310404
0.0163563131387389
0.014918765959899296
0.012848732729626899
0.01058391149157888
0.007198995481734459
0.008877139986603612
0.010597425520114962
0.012042135342041944
0.012882117576850035
0.012943465384377706
0.012198336705162523
0.010757914127537333
0.008856050908010404
0.0067921088119031175
0.004839681421728089
0.00317607501516822
0.0018459213455216418
0.0008800380215091784
0.00030044220452366037
5.019552827839535e-05
2.6346454761384587e-07
-1.3097908735832872e-05
-0.0001419446694113526
-0.0004834650885681397
-0.0010519159936724272
-0.001773996003850371
-0.002509688124537628
-0.003093405623859134
-0.003383705502782646
-0.0033067649821036135
-0.002879887950785452
-0.002207217087998524
-0.0014483976332290236
-0.000769683875415927
-0.00029256075119166684
-5.555168096970107e-05
-4.779912701372611e-07
1.3357259955035597e-05
0.00017164968860407663
0.0006549639424730264
0.0015892655734034392
0.003009327256396196
0.004860449937188469
0.0070961632879519955
0.009658408988816817
0.01231435338907083
0.014712744582637018
0.016481640431164738
0.017345521382111415
0.017189648885418213
0.016073117220701025
0.014227921096265745
0.012050687053744551
0.009895263633585328
0.006392884766748446
0.007918578587319433
0.009600501498208057
0.01119776581339512
0.01236693095074142
0.012863979312270846
0.012575221014520193
0.011523311741940564
0.009854604138928861
0.007814347878413614
0.005693760525880092
0.003753769689003831
0.0021582766545305897
0.001008720767469327
0.000332260095690093
5.057968635316688e-05
8.23870392324095e-08
-2.1239613116193318e-05
-0.00019722117327340843
-0.0006420433231955696
-0.0013678288471930063
-0.0022806441793462406
-0.003206745663801021
-0.003942476349356191
-0.004313922729829047
-0.004228985246846501
-0.003705947772770086
-0.0028692803172108167
-0.0019132281077443203
-0.0010438261837998337
-0.00041674285197302994
-8.947431829152498e-05
-1.92404209988123e-06
9.561450915497016e-06
0.00016912919674697986
0.0007015089274879013
0.0017710910191126097
0.0034351099390493496
0.005627707644134425
0.00820056460002306
0.0109353213856882
0.013501810321601323
0.015545812818413786
0.016786948441212375
0.017074569688102118
0.0164044236962839
0.014929180510118196
0.01294737309000073
0.010858135093988393
0.008919695891209507
0.005471372338496528
0.006783736892788681
0.008300125505080086
0.00985280686955777
0.011130908086919305
0.011874422375453782
0.011923367163184073
0.011232635893535854
0.009862603330344156
0.0079828209414448
0.005865347508440198
0.003823865976945827
0.002128331402764738
0.0009394739707332637
0.0002762529303782619
3.0017216640133662e-05
-3.4763822659183726e-08
-5.032556622378859e-05
-0.00032725514847004744
-0.0009495921900905177
-0.0019143164579518534
-0.003095539910845583
-0.004277413001495498
-0.005212864699200752
-0.005692308099231465
-0.005603230164802113
-0.004963298360105805
-0.003916795502621024
-0.0026946168089939473
-0.0015489066287383269
-0.0006809994223660394
-0.00018341363447722345
-1.2380861851458525e-05
1.7685546007087291e-06
0.0001096885407538091
0.0005761481547088872
0.0016089109720219188
0.003301238988692599
0.005596038973607673
0.008262900915180215
0.010946528537435489
0.013264857423362088
0.01490929080782227
0.01570960370717671
0.015621746533309082
0.014710846913103034
0.013166091584832033
0.011288635136745946
0.009434367274974917
0.007780577546448685
0.004526879591251919
0.005599211267806786
0.006871939703120474
0.008232586397674635
0.009424300582533789
0.010210645982544739
0.010425301991226215
0.009988595365669147
0.008899869758549988
0.007260392178695721
0.005305237722590248
0.0033653480169733825
0.001771109298211367
0.0007065700838815293
0.00016663992387985326
7.753958794721084e-06
-3.844552782010218e-06
-0.0001276010009013715
-0.000576931211450706
-0.0014590287201362232
-0.0027421609588622574
-0.0042594919123251735
-0.005749040640826415
-0.0069199854122173905
-0.0075282339281038235
-0.007441248806051871
-0.006674454287128975
-0.005388668819810027
-0.003848470209980502
-0.0023522638963535993
-0.0011530118579870644
-0.0003911308654853814
-5.807955297566721e-05
-1.8125280669905806e-08
3.984435812170252e-05
0.0003520754546118128
0.0011834169562746492
0.0026704830790433027
0.0047883114819825615
0.0072800412870103245
0.009722123694077978
0.011725283865827557
0.013037942966223036
0.013573055896760059
0.013348526901508222
0.012453845790979478
0.011070149394612984
0.009462605175940572
0.007926687253726066
0.00658362764905373
0.003626373602285722
0.004462165014410149
0.0054646302643586485
0.006556058002900144
0.007535496021111085
0.008209584196511079
0.008433795021159828
0.00812582068122931
0.007258721754692903
0.0058915843954101
0.004220978434754165
0.002560609938976123
0.0012396967780011656
0.00042149994877807416
6.626220243917196e-05
1.118753311159547e-07
-2.9736443566072024e-05
-0.00028657705589897234
-0.0009713902448919091
-0.002164607547515207
-0.0037978245465227476
-0.005663253310976466
-0.007459142131901364
-0.008860425592338385
-0.009597193759757513
-0.009521401653562368
-0.008644649538468944
-0.007136839975649053
-0.0052852419408545475
-0.0034239271830251157
-0.0018515374472473367
-0.0007586349687217969
-0.0001837096863284023
-8.86311745914517e-06
4.290898732719606e-06
0.00014871647870478167
0.0006937389728507304
0.0018146160331115727
0.0035336764461452556
0.005630285561080257
0.007695879627200505
0.009370527248254466
0.0104478582878954
0.010880395047109715
0.010702811700568516
0.009995276599530865
0.008905218221169959
0.007645374882580815
0.006450572041226102
0.005408913207873852
0.0028096539161630227
0.003433117102209182
0.004179042956316808
0.004989410409318083
0.005711701622264047
0.006199004521872284
0.006340919824735768
0.006072760838042296
0.005370080307477314
0.004277595975521179
0.0029592025013764
0.0016833422638463413
0.0007240667027791189
0.000191882677542169
1.3142399580369646e-05
-1.5327827287763745e-06
-0.0001021569421255566
-0.0005329570825733097
-0.0014644647910134424
-0.002941775781700778
-0.00486256680828058
-0.006991081547489997
-0.009005364473282266
-0.010567117708077086
-0.011397824902486836
-0.011343050834182446
-0.010409365969654312
-0.008764289397837903
-0.006698569792466376
-0.0045594738069718406
-0.0026710918527360615
-0.0012615007105750533
-0.0004149571870640807
-6.0658965638787804e-05
-3.0742917140980444e-08
3.565510730437394e-05
0.00031307452869196883
0.0010287359951916737
0.0022512275752006672
0.0038361180321644047
0.005455122549609296
0.006805588422717074
0.007712947482561895
0.008134301593203167
0.008090668128740855
0.007635338960610737
0.006873225938695712
0.005963037046415621
0.005085756339453453
0.004311521301685976
0.0020954136807925824
0.002540868339831952
0.003067100062040482
0.0036282280233580783
0.004111474319237062
0.004411422656349902
0.004452039832832911
0.004192696272049689
0.0036248844730328153
0.0027943962899907864
0.0018364118655818673
0.0009576228947058376
0.00034944199206511114
6.193377965307599e-05
3.274119468650046e-07
-1.907585435086211e-05
-0.00021994889487749736
-0.0008074922817808187
-0.0019108361835759433
-0.0035411244016961964
-0.005576274677836528
-0.00777697442797568
-0.009830967980257618
-0.011416252642382198
-0.012269086555198053
-0.012241468212656644
-0.011334650182918838
-0.009700307215363942
-0.007608390624106348
-0.005388602219943391
-0.003359181859836263
-0.0017598982940692086
-0.0007056725132868203
-0.00017119749992595883
-9.440256844042778e-06
2.316463959524379e-06
0.00010175877502289666
0.00048195111274869216
0.0012410847578766182
0.00231618710033227
0.0034872450567942186
0.004525386225984105
0.005283317066414858
0.005708062390285967
0.005796225811812094
0.005571512940639331
0.00509923384580997
0.004490261192149613
0.0038796433425681534
0.003326168381934624
0.0014905925372042323
0.0017942860633655038
0.002145378767718439
0.0025079198263672727
0.002802120543492398
0.0029568153637245073
0.002924618015739818
0.002685853220306243
0.0022472864785058806
0.0016562998420065987
0.0010183907376496988
0.0004754004416746064
0.0001386873519142831
1.2247268008789215e-05
-3.816993318499373e-07
-5.647111346983158e-05
-0.00033512075914636416
-0.0009911000036197466
-0.0021108256976361296
-0.0036816788115863097
-0.005582695505854808
-0.007599711124752858
-0.00946237935236509
-0.010895651574267218
-0.01167483654488974
-0.01167228253800731
-0.010885110886420914
-0.009437181481206307
-0.007554141688319916
-0.005516794713016468
-0.0036032444481999553
-0.0020334460454646017
-0.0009290632766547605
-0.0002975651977138701
-4.31312245912165e-05
-3.6867130791528245e-08
2.11680354565516e-05
0.0001867322981414218
0.0006002809563576885
0.0012579941548664351
0.002038794747742757
0.002789132849642453
0.003392094402728474
0.003788233447622571
0.003954739258096529
0.0038926687264908043
0.0036365605928624237
0.0032584847907617554
0.0028544434350308186
0.0024728181206640078
0.0009980400146974422
0.0011936438559833498
0.0014125248646304936
0.0016284075458033115
0.0017890971070576355
0.0018505801377546704
0.0017867779494647432
0.0015920954134454753
0.0012811141172222097
0.0008957425791480101
0.0005099143545619378
0.00020891329634399337
4.545778009919284e-05
9.95463799593058e-07
-4.972989119923276e-06
-8.982800830849255e-05
-0.0003802006065100008
-0.0009796535824550018
-0.0019387325284327464
-0.003234900105089188
-0.004767662280223819
-0.006370697884953121
-0.007839079741187352
-0.008966409040386607
-0.00958433915312757
-0.009596232508953514
-0.00899745178563858
-0.007877439009031512
-0.006402512352187612
-0.004782774638225015
-0.003230558686556158
-0.0019197212724868446
-0.0009553119943346457
-0.00035995751153946286
-7.920849312865825e-05
-3.1392758472461523e-06
2.237579762975494e-06
6.195809263275922e-05
0.0002641353948572616
0.0006325797533979136
0.0011143547878566466
0.0016190655495670532
0.0020633781883460434
0.002392575303856587
0.00257609096914531
0.002602589377304811
0.002486078131012992
0.0022692158294724896
0.0020153101457873416
0.00176136525209745
0.000618804220700638
0.0007358794463314956
0.000860389831545902
0.0009750971870303616
0.0010498809959804507
0.001061023865490945
0.0009968205106143837
0.0008590162687395637
0.0006626089476863336
0.0004380738503579292
0.00022988563758143018
8.163958112463163e-05
1.2263822282945347e-05
1.2351508938345943e-09
-1.0663293776780449e-05
-9.491505826077206e-05
-0.0003305008641912641
-0.0007779899045774354
-0.0014629008751506807
-0.0023641450447297405
-0.0034118776124030803
-0.004495718360895144
-0.005482109636996225
-0.006237605524884632
-0.006653558792376718
-0.0066671688611424735
-0.0062743198502597155
-0.005531178671057708
-0.004543824745378305
-0.003447861252532754
-0.0023824508877959114
-0.0014644884250801327
-0.0007687934407423249
-0.0003183483311021669
-8.623757462305763e-05
-7.894727177824221e-06
6.112076074724427e-08
1.930046822806336e-05
0.00011199713346215232
0.0003053521844413295
0.0005823945732834629
0.0008967121945745212
0.0011962394288277923
0.0014394084118818946
0.001598056944059391
0.0016573315443827662
0.0016196331636341619
0.0015069405565274756
0.001356577183004949
0.0011940013779514961
0.0003490963421287299
0.00041279765777353834
0.0004750755638453962
0.0005260943940279334
0.0005515331786087503
0.0005412478589401082
0.0004919462999149
0.0004078163612227944
0.00030012955396069237
0.00018689476785428615
9.001918637828328e-05
2.732304511169496e-05
2.5131392449029055e-06
-7.520870306729846e-08
-1.1997505023395785e-05
-7.389603379000424e-05
-0.00022647733468999338
-0.00050019931973548
-0.0009060531331811211
-0.0014297457727868667
-0.002030857536627764
-0.002647476821546091
-0.0032056293388300653
-0.0036318331365572123
-0.003866363834426743
-0.003874569494436912
-0.0036538342930942753
-0.003234557632879437
-0.0026747325034749895
-0.0020491278309287147
-0.0014353534714425533
-0.000899808415606559
-0.000486604932648617
-0.00021171710924524191
-6.333699895939892e-05
-7.908551567322914e-06
-1.8101928895452445e-11
6.510682415791386e-06
4.844525343670443e-05
0.00014531101244655715
0.00029434736816858593
0.0004749447528811071
0.000658943294346888
0.00081979939472205
0.0009367972887307197
0.0009969382144798178
0.0009974654661491077
0.0009472113329717824
0.0008646865390903448
0.0007652335580408159
0.00017617215628752293
0.00020685342802940687
0.0002327370001766965
0.00024919087779992866
0.00025138207846084305
0.00023667162424375937
0.00020554271099369073
0.00016179309928451174
0.00011205138340930939
6.472935633489811e-05
2.8019726213912106e-05
6.905564956157307e-06
2.675445123406361e-07
-3.5952017852398315e-07
-9.673493270370202e-06
-4.591536690077532e-05
-0.00012693298575418426
-0.0002656687917734772
-0.0004661135404943705
-0.0007207341012379478
-0.0010101074067387615
-0.001305012995726354
-0.0015707398609443955
-0.0017728505560514088
-0.0018833252725548957
-0.0018858454789609004
-0.0017790904134033013
-0.001577256749087812
-0.0013076199548754147
-0.0010055431556994987
-0.0007080004347426507
-0.0004469686593536049
-0.00024410876677968888
-0.00010781337580874292
-3.31408224136793e-05
-4.454576336348889e-06
-9.013442587865973e-10
2.7369018434429957e-06
2.2133074070724644e-05
6.877701307963181e-05
0.0001435912599266016
0.0002388778603525056
0.0003416590442018701
0.00043756082533942157
0.0005138177900897852
0.0005613165346430549
0.0005760596818858132
0.0005597092300590166
0.0005188455100670193
0.0004612271860613249
)
;

boundaryField
{
    "(inlet|outlet)"
    {
        type            zeroGradient;
    }
        "(front|back)"
        {
            type            empty;
        }
    "(top|hills)"
    {
     	type            zeroGradient;
    }
}

