/*--------------------------------*- C++ -*----------------------------------*\
| =========                 |                                                 |
| \\      /  F ield         | OpenFOAM: The Open Source CFD Toolbox           |
|  \\    /   O peration     | Version:  v1806                                 |
|   \\  /    A nd           | Web:      www.OpenFOAM.com                      |
|    \\/     M anipulation  |                                                 |
\*---------------------------------------------------------------------------*/
FoamFile
{
version     2.0;
format      ascii;
class       volScalarField;
location    "0";
object      nutCoeffs12;
}
// * * * * * * * * * * * * * * * * * * * * * * * * * * * * * * * * * * * * * //
dimensions      [0 0 0 0 0 0 0];

internalField   nonuniform List<scalar> 
1000
(
0.14809471280431027
0.15303224430562437
0.14609584886822846
0.12961259938975087
0.10947962619331703
0.08873668458630919
0.06856345536334495
0.04989129031092928
0.03391237766670766
0.021344166481442446
0.011915983612941534
0.0047176451208709854
-0.0018917036273567564
-0.009045158115511872
-0.01680706534831388
-0.024994803356571553
-0.03338712968542335
-0.0417332963093381
-0.04976530191544789
-0.057212587095805754
-0.06381716972265368
-0.06934836197899853
-0.07361499655178173
-0.07647515659313783
-0.07784190314584805
-0.07768538262303239
-0.07603182029374243
-0.07295959012674276
-0.06859332149366697
-0.06309675123461335
-0.05666515110454693
-0.049517096445423354
-0.04188720590709226
-0.03401821580465886
-0.02615312927090389
-0.01852775803254648
-0.011362328330502408
-0.004853308874696257
0.0010793197983417014
0.007834452947945925
0.017572906865313126
0.03157799130165704
0.05011659420599043
0.07208384957921546
0.09581814933434299
0.12001675863222619
0.1431203562221641
0.16162738141770527
0.16916911569249982
0.16346172655448163
0.16318249163588308
0.16963554830956976
0.1649789556014882
0.150711649856914
0.13196286869210616
0.1115817864748543
0.09069878985938247
0.07023906454361149
0.05162252818378568
0.03611020680534523
0.023989165286365816
0.014623332760577082
0.006061623302276687
-0.0032478172874875534
-0.013398799000083284
-0.024128459721229602
-0.03513034704415354
-0.046068052361781235
-0.05659124061052048
-0.06635260729925643
-0.07502455943568091
-0.08231453254039926
-0.0879773906842692
-0.09182563149233545
-0.09373567268748974
-0.09365148418734077
-0.0915852075948679
-0.08761535297483047
-0.08188274261154767
-0.07458450357230309
-0.06596695383806629
-0.05631571879697393
-0.04594642354534311
-0.03519278347900204
-0.02439435250530742
-0.013884023750987717
-0.0039750294137883176
0.0050518922271139
0.01333763556590257
0.022831751999875183
0.03599644240074457
0.05360694311393317
0.07516729070268144
0.09892882978603595
0.12299821816333596
0.1461605903233891
0.16708354145399917
0.18268856777648235
0.18753431019882322
0.18014647353060056
0.1764573761596352
0.18446911309171835
0.1824818118425618
0.17113835311701664
0.1546127327097136
0.13548444080378952
0.11485269843850564
0.09361327988994719
0.07324333453220835
0.05532661166669927
0.04065834008612898
0.02900434290037999
0.018270680678673813
0.006577640966491608
-0.006178049817017553
-0.01964810832326056
-0.033437779518095415
-0.047123409915779825
-0.060271267906811275
-0.07245621396514201
-0.08327953744026655
-0.09238462041971811
-0.09946986970768058
-0.10429972606025191
-0.10671227679716697
-0.10662448453512594
-0.10403515677727937
-0.09902514857659586
-0.09175508433657376
-0.0824601427424258
-0.07144253150926229
-0.05906013188184274
-0.04571392812925445
-0.031832635888023604
-0.017855539579956427
-0.004215935748587152
0.008676427117368284
0.020451957927059315
0.03128063340356612
0.04350505099940438
0.0596795714224949
0.0799906569885158
0.10328238717102983
0.12744723768397762
0.15062511919764765
0.17178541553009335
0.18978712795734037
0.20193296017918305
0.20378332730158055
0.19469319221115133
0.18723521925435985
0.19678697825804342
0.1977298413556044
0.18990616087927842
0.17639309386115
0.15937065163599887
0.13988139152298323
0.1188078030694001
0.09762376488514869
0.07805993962738308
0.06125970507958139
0.04737174190720561
0.034335429073156905
0.020115948320414363
0.004634445393426751
-0.01167581231256508
-0.028333474006481375
-0.04482920221633307
-0.06064641710194409
-0.07528144493184315
-0.08826219109282961
-0.09916549035810701
-0.10763092617282842
-0.11337409513172698
-0.11619596072578468
-0.11599057845433068
-0.11274975258362219
-0.10656483732525479
-0.09762486125667692
-0.08621082497834287
-0.07268647773959128
-0.057484241258058795
-0.041089621531619436
-0.024022001492052622
-0.006814020374098836
0.010008245848028877
0.025945563780632373
0.04054454516722932
0.05396059630433506
0.06869469838553088
0.08717708852371853
0.10906625018049043
0.13278966280045704
0.15616959672004807
0.17750913689799172
0.19591865404008293
0.21037208714589264
0.21858162331495398
0.2172366831125256
0.20649804394554472
0.19498271303372042
0.20597388052970042
0.2099195592826134
0.20599678060317328
0.19614370384907764
0.1820163311726704
0.16451971827343553
0.14449325097560153
0.12336695527003788
0.1029139313510369
0.0844816173421644
0.06851520042627109
0.05312725696135885
0.03631611706890587
0.01806282960446993
-0.0011192731627627968
-0.020666503751342744
-0.039986415171774564
-0.0584798865304021
-0.07556248312593303
-0.09068518385835526
-0.10335371760779623
-0.11314558102139931
-0.119726156601166
-0.12286121445107447
-0.12242713511342075
-0.11841713210264217
-0.11094347013736418
-0.10023444527083135
-0.08662649495271035
-0.07055179073206597
-0.052520048015715894
-0.03309945652332855
-0.012894173715125797
0.007479413794028296
0.027413600636665363
0.046331711550851404
0.06370705921140986
0.07963591714916735
0.09653325802258837
0.1165436876705963
0.13895955372729582
0.1620495141338118
0.18374115840565688
0.2025069696494755
0.21753127320486554
0.22790032151877596
0.23184862802880005
0.22728456595367352
0.2150560671345444
0.1993901106988961
0.2116265872287909
0.2184297698370813
0.21849488171700268
0.2126871510749147
0.20207199904787476
0.1873312928771701
0.16918816907177273
0.14894497092538037
0.12831521866410836
0.1087418112133195
0.09088782794013028
0.0731511619882581
0.053732734827869534
0.032704297417550515
0.010653027735186987
-0.011779925605887044
-0.033921644578771885
-0.05509051263261389
-0.07461950086109628
-0.09187917615726748
-0.10630052217693335
-0.1173958959181618
-0.12477894602875152
-0.12818119595049846
-0.12746460338810842
-0.12262938710323916
-0.11381576691139728
-0.10129893184958827
-0.08547763833441886
-0.06685746771010008
-0.04602810330026539
-0.023639802306840794
-0.0003776110229567767
0.0230645322212617
0.04600616106866361
0.06780255597889587
0.0878636045601252
0.10618767761286262
0.1248995735752509
0.14576436753395547
0.16788020808743903
0.1895306502203768
0.20882118901722752
0.22438753852266102
0.23549681738737355
0.24143343560202396
0.24107218952865125
0.23350694671045583
0.22006469533072306
0.20039822648090747
0.21359325209352714
0.22289721731521533
0.226719013687298
0.22499810397199424
0.21821331097486052
0.20677504086185128
0.19122478431042275
0.1726321123486692
0.15251407209876597
0.13228745467998132
0.11275999968015124
0.0927172304713017
0.07071698367718723
0.04694998154904199
0.022071587797158593
-0.0032040647637117128
-0.028126958675365448
-0.05193555026540682
-0.07388192946764147
-0.09325758655707439
-0.10941990812862006
-0.12181686585118065
-0.13001142891449852
-0.1337013163391443
-0.13273456239407308
-0.12711845416751633
-0.11702077390957479
-0.10276289457953239
-0.08480486884616889
-0.06372430101494947
-0.04018896533481317
-0.014929425788410555
0.011290871942385238
0.037703307192714454
0.06355824186803859
0.0881470281002761
0.11082151765430262
0.1314484376597583
0.15170357904786566
0.1729101369418829
0.19409300793532477
0.21365385109608462
0.22994264090845137
0.2418194745056909
0.24871529961172895
0.2502125144612912
0.24586036921049817
0.23576477520506603
0.22148926279055223
0.19817977758330685
0.21196868648867614
0.2232420557700764
0.2303019369040528
0.23235504806294652
0.22935072118653665
0.22142101367940087
0.20889656814895508
0.19254001414011257
0.17353569713015907
0.1531255918559832
0.13216468638051088
0.10990776484457591
0.08540913635657615
0.05900570411440158
0.03141669210292912
0.0034242754890804706
-0.024150155329705297
-0.050472132708107485
-0.0747208503843345
-0.0961175583648185
-0.11395455801031516
-0.1276232023663777
-0.13664116570448206
-0.14067511089688395
-0.1395582599070226
-0.13330051902949933
-0.12208984922568135
-0.10628404263999067
-0.08639359387424851
-0.06305756031303968
-0.03701269912947691
-0.00906223621435169
0.019956600361078675
0.04920372571097525
0.07786124027376279
0.1051574942149048
0.13038614208663066
0.15325270979492367
0.17485207666260497
0.19600304486335213
0.2157435890466612
0.23270005492618281
0.24558218125395737
0.25357703305574125
0.2563573508826856
0.2538410207476293
0.24617520050593303
0.2342179084511066
0.21955773058272068
0.19308889639493212
0.20705752706246636
0.21965113799913205
0.22921049619365433
0.23442058904993865
0.23479212269935326
0.23019728948026133
0.22075439452395665
0.20689343085824563
0.1893803340525469
0.1691500997359042
0.14699308920830537
0.12266982073605748
0.09582977725027392
0.06697617066918787
0.036888274679882566
0.006410728648957472
-0.023572229097637627
-0.05216425739924393
-0.07848530908596722
-0.1017014206234647
-0.12105541263272072
-0.13589597228920539
-0.14570651031283488
-0.15012885968111284
-0.14898222063285285
-0.1422738870302056
-0.1302012088894649
-0.11314341133814375
-0.09164401958249001
-0.06638531507339125
-0.03815625433909936
-0.00781879791165958
0.02372679762738013
0.05557519646168554
0.086843862393667
0.11669855861175359
0.14437427163275315
0.16939171228549202
0.1921651076152786
0.2129618760249339
0.2309247794482323
0.2450367546282043
0.2544877088160187
0.2588585134917591
0.2580807835755954
0.25236746811891136
0.24231510245634552
0.22926474123166052
0.21468866879950738
0.18559472369094557
0.19931917323205794
0.2125354146149157
0.22372291028497338
0.23125296619983468
0.23431051450077994
0.23254403768765888
0.22587028700015394
0.21439421425259153
0.1984407746581398
0.17856639560296797
0.15541366697532535
0.12923169415077768
0.1002898512995026
0.06926163328584271
0.03698214048065097
0.004351306063671316
-0.027693777623832506
-0.0582082459859843
-0.08626900280343976
-0.1110053523159188
-0.1316292815879826
-0.1474647340957918
-0.15797548555943128
-0.16278864963101583
-0.1617131698225732
-0.15475086961590914
-0.14209899064015472
-0.12414300419150856
-0.10144003621015353
-0.07469463106111127
-0.044726625461835895
-0.01243764595478321
0.02122468564126453
0.05530183330002122
0.08885415356581813
0.12098929894464783
0.150885282502695
0.17787319635462157
0.20165759559730398
0.2219612611684799
0.2381208006766049
0.24957695289325413
0.2560494921869565
0.2575035708210116
0.2540896602903144
0.24623247082893973
0.23481574867981747
0.221437794318546
0.2073878690915165
0.17621062441542315
0.18930249231267685
0.20247040571493627
0.21438117981790758
0.22327676554175527
0.22814143255910307
0.22845445906894582
0.2239548956108288
0.2144522080090954
0.19985673858404243
0.18034242951627422
0.15637508331183697
0.12863122856936485
0.09794033473282317
0.06512818337133176
0.031078267934376073
-0.003263692062631985
-0.03692010181175125
-0.06891210178865624
-0.0982906886905592
-0.12416653953688772
-0.1457400125489008
-0.16232810859272034
-0.1733905739938329
-0.17855121075594868
-0.17761493755067242
-0.17057817394950126
-0.1576317265684769
-0.13915506062491909
-0.11570223444197193
-0.08797965362797437
-0.05681685698645188
-0.023133976631820916
0.012093151420553196
0.04786893363961801
0.083210485972884
0.11717743967800555
0.14889918542103622
0.1775389212921462
0.20216727081419905
0.2220370615385331
0.23671958754631992
0.2461230728376443
0.2504504078154856
0.24998264697316613
0.24502621911878383
0.23613061084395998
0.22432644749338324
0.21130231721261275
0.19815450263025258
0.16542443030253004
0.17757246283242462
0.19011940512092143
0.20191973412712713
0.21122713561371148
0.2169457131826231
0.2184554487221662
0.21536153604867878
0.20723409891705513
0.19363626337992257
0.17440875542798512
0.14985687112981386
0.12098971517918193
0.08906732623460477
0.05502917723291598
0.019792827040506136
-0.015665656849266376
-0.05034442214028435
-0.08324816669456485
-0.11341955707166158
-0.13996871680041956
-0.16210108907252274
-0.17914242943185552
-0.19056145478566622
-0.19598870134875632
-0.19523092349967164
-0.18828046157353148
-0.17531826513097098
-0.15670975911800145
-0.13299296882485187
-0.10486033912580017
-0.07313198524944983
-0.03872645600811821
-0.0026268074950179655
0.034155103965352436
0.07061201144196984
0.10577408144481407
0.1387383771501386
0.16854949846450765
0.19381078805318255
0.21342913983973527
0.22718228073953525
0.23536200711712418
0.23853890017823087
0.23721625594377943
0.23179345091827228
0.22286976781018863
0.21151292277926284
0.19938718465228442
0.18742251161615253
0.1536352417830864
0.16463236193467376
0.17613821641403968
0.18716052829808105
0.1960517011075787
0.20173150122834207
0.20355151877881067
0.20104305638702388
0.19362141204850258
0.18061093229139782
0.16161104721641037
0.1368089392565985
0.10742494932494429
0.0749777681529886
0.040465845805653745
0.00481849535393822
-0.03098106494241248
-0.06592960476438277
-0.09903709948163453
-0.1293579296453406
-0.15601929065799597
-0.1782469042458174
-0.1953872831967814
-0.20692749210699257
-0.21251100296250702
-0.21195010138637893
-0.20523391532893565
-0.19253158508567703
-0.1741893602913593
-0.15072137240698336
-0.12279409990254349
-0.09120338395743235
-0.05684741031946521
-0.020694844538370925
0.01624985244232983
0.05298094469895402
0.0885248835877131
0.12197240335026677
0.1523148547157813
0.17790035201362012
0.19743285333430308
0.21082462796966348
0.21861288609315896
0.221589012132307
0.22037684517179584
0.21540954280164096
0.20727560371448417
0.19700001616962268
0.18615130134478367
0.1755375385579337
0.1411077746191555
0.15085609877729758
0.16107406229887364
0.17087678970680714
0.1787537537844224
0.1836992223060088
0.18509048239760711
0.18244363894714655
0.17511644285665923
0.16233042318520835
0.14356819109492427
0.118957220784614
0.0897965239724366
0.057678229844153675
0.02359888890462875
-0.011529935188320718
-0.046747238572236914
-0.08107695184535448
-0.11356024258347246
-0.14328581208479943
-0.16941630043259173
-0.1912118438182579
-0.20804970207481688
-0.21944154301148847
-0.22504739678040084
-0.22468631734784256
-0.2183440822892494
-0.20617637671745478
-0.1885069480557921
-0.16582050815949126
-0.13874891879554305
-0.1080510935249207
-0.07458779416486591
-0.03929147508694908
-0.0031326727177363374
0.03291348852542334
0.06790200190985211
0.10094883515078755
0.1310608961714696
0.15654191913875723
0.17603600491872867
0.1895055325922762
0.1975787005267446
0.20111297488903676
0.2007527311643065
0.1969137791726949
0.1901312660654601
0.18133814515193178
0.17196966676477263
0.16275843754561908
0.1279646240290624
0.13645644537635784
0.14529231655586036
0.15366142550553477
0.16020123532776664
0.16400593197299534
0.16450774417871372
0.16124928617979786
0.15361420937985232
0.14085188561139106
0.12245880865427403
0.09856699281747576
0.07043551550816994
0.03956482005798116
0.006892310602774484
-0.026719479839522678
-0.06036343258246153
-0.09312067741686991
-0.12409124795079052
-0.15242179132966902
-0.177329661916371
-0.1981239100260062
-0.21422266964887252
-0.2251686152861619
-0.23064147675776936
-0.23046828481038592
-0.22463083616739338
-0.2132693750366812
-0.19668184212141684
-0.17531754286098988
-0.14976529011611578
-0.12073388901140011
-0.0890295955643767
-0.055526351680136435
-0.021134627779072056
0.013231482778870655
0.046686425451597006
0.07840329757301072
0.1074650258067935
0.13230955624315546
0.1516447882855505
0.16540623776587016
0.17416821125260937
0.1787157811783177
0.17963119767273908
0.177279171952988
0.17212144215284758
0.16497717703485854
0.1571317452394938
0.14927305128292045
0.11423161429483798
0.12151518748353754
0.1289737495955997
0.13586404786301154
0.14098154686148304
0.14352957604797825
0.1430066995368049
0.1390040407414656
0.1309843712005082
0.11831677410215413
0.10060930452805984
0.07804645718491957
0.05176214741737601
0.023050467636087507
-0.007253937341932686
-0.03836561082021613
-0.06945983975521622
-0.09970244896595166
-0.12827758965526853
-0.15441232635448665
-0.1773976981705664
-0.19660702343069306
-0.21151124019173137
-0.2216925347177594
-0.22685599970632814
-0.22683945603318825
-0.22162102160845837
-0.21132332512845164
-0.19621326993950505
-0.17669690446055109
-0.1533079143441344
-0.12669054891910014
-0.09757721787013794
-0.06676169874218575
-0.03506958255034793
-0.003328228331646653
0.02766263319736967
0.057157489783190546
0.0843564293519339
0.10795088515689706
0.1268015323992651
0.14076339524474452
0.15025282403808235
0.15588784190576957
0.15813910808900813
0.15730739841872549
0.15377896824413614
0.1482535947874451
0.14185363870515638
0.13522720078201633
0.09993462442623872
0.10607790214933288
0.11220150969332944
0.11764885424971566
0.12139793642871337
0.12277293330880905
0.1213454588067376
0.11676778187357868
0.10860819739733364
0.09639645722920864
0.07989122479991531
0.05933651388247125
0.03568913930736516
0.00998485641072342
-0.01706891188172054
-0.044785482432743516
-0.07244430801968824
-0.09931713363122438
-0.12469220331827313
-0.1478950452788868
-0.1683068640388379
-0.18537976903406805
-0.1986499045622464
-0.20774927445025915
-0.21241608056576167
-0.2125039077220292
-0.20798874897259137
-0.1989733978651146
-0.18568784455345155
-0.1684845074142711
-0.14782885449325597
-0.12428328556383551
-0.09848764287370129
-0.07113506733301048
-0.04294611840072819
-0.014642317718914116
0.013079551187920998
0.039569996623580045
0.06416165148455744
0.08584304133635527
0.10367510752444097
0.11742344310313309
0.12730914802893437
0.13374838250200463
0.13708409366621468
0.13755251992231438
0.1354684799531802
0.1314090477294048
0.12631278102592236
0.12076742548731831
0.08521533502085692
0.09028221889003928
0.09511122085678968
0.09916291873548008
0.10163579568714315
0.1019941001806979
0.09989390449773138
0.09506058070400913
0.08718044846173768
0.07594790117970261
0.06125910014061863
0.04338106961870606
0.023060848508082345
0.0010729348182718819
-0.022010527865317497
-0.04561542296936929
-0.06913917607711788
-0.09197249904925968
-0.11351980416457097
-0.13321650614302594
-0.1505443571110766
-0.16504398412221075
-0.17632581731612496
-0.1840797299876442
-0.18808377502539808
-0.18821193148849874
-0.1844401859583476
-0.1768503386723643
-0.16563058055561708
-0.15107175007070553
-0.1335594593210481
-0.11356085347238452
-0.09160866545685084
-0.06828115506420612
-0.04418065781856504
-0.019911885005698345
0.0039390931447899355
0.026823942843735005
0.04820243404404266
0.06733905390928109
0.0835101197666369
0.09643122681187934
0.10615473511519545
0.11290885729941715
0.1169133442660826
0.11834133534754737
0.11743716365339345
0.114647707176308
0.11070013981265799
0.1060884919620101
0.07041228412432592
0.07445817857683043
0.07802867474344977
0.08072744821146595
0.08200818769169049
0.08149520635938401
0.0789415954540169
0.07415746607638525
0.0669529300314108
0.057174061936825886
0.04481723175510865
0.030119172309504956
0.013595823481273002
-0.004221071414487683
-0.022892698054836746
-0.04196369383077899
-0.06095484741464723
-0.0793805978758721
-0.09676490817792383
-0.11265564032124209
-0.12663676848125727
-0.13833881637062387
-0.14744762041438647
-0.15371230281641834
-0.15695225987626685
-0.15706321570803364
-0.1540220676350499
-0.14788982598011102
-0.13881192761464572
-0.12701539133793638
-0.11280273284677185
-0.09654208713371788
-0.07865484912477266
-0.059600785731766484
-0.039861395054683425
-0.019923500738992485
-0.00026256789243960747
0.018672773838801
0.03645443828699652
0.05257341353858044
0.0665201753974835
0.07802151241396593
0.08701938592733967
0.09359138290294157
0.09784723139147691
0.09989783614366954
0.0999154440613877
0.0982084737708309
0.09526928358902981
0.09146704928138619
0.05605905295740769
0.05914085164217769
0.06151133377182073
0.06292801703708223
0.06311192654333746
0.061856032960206704
0.05901567246136466
0.054490400271367534
0.0482102156640177
0.04015137564911049
0.03037301904522822
0.019042899332504002
0.00644365108364847
-0.007110624696763611
-0.021307268468270465
-0.03580849098471867
-0.050256414220998365
-0.06428557215213787
-0.0775349015464133
-0.08965854573972193
-0.1003357847817551
-0.10927939421284039
-0.11624334224037813
-0.12102935235024181
-0.12349283993205369
-0.1235479001189523
-0.12117118073571354
-0.11640388221247878
-0.10935211313755248
-0.10018443149776185
-0.08912738711186784
-0.07645848541962467
-0.062497281313608405
-0.04759458542569178
-0.032120904081324037
-0.01645389804409156
-0.0009659698371797916
0.01398791788120364
0.02807677655968733
0.040971428255517056
0.05236518820098191
0.062047644642917094
0.06990865938171016
0.07591824225871849
0.08009456474200197
0.08249024847792676
0.08320622651091363
0.0824114375039119
0.08035495969845691
0.07726301166085137
)
;

boundaryField
{
    "(inlet|outlet)"
    {
        type            zeroGradient;
    }
        "(front|back)"
        {
            type            empty;
        }
    "(top|hills)"
    {
     	type            zeroGradient;
    }
}

