/*--------------------------------*- C++ -*----------------------------------*\
| =========                 |                                                 |
| \\      /  F ield         | OpenFOAM: The Open Source CFD Toolbox           |
|  \\    /   O peration     | Version:  v1806                                 |
|   \\  /    A nd           | Web:      www.OpenFOAM.com                      |
|    \\/     M anipulation  |                                                 |
\*---------------------------------------------------------------------------*/
FoamFile
{
version     2.0;
format      ascii;
class       volScalarField;
location    "0";
object      nutCoeffs32;
}
// * * * * * * * * * * * * * * * * * * * * * * * * * * * * * * * * * * * * * //
dimensions      [0 0 0 0 0 0 0];

internalField   nonuniform List<scalar> 
1000
(
0.021876805926286862
0.02675817648731698
0.0302436603893765
0.031207861853233404
0.030049503627049803
0.027509722354120275
0.024080061160469787
0.02022054278737708
0.016624377500797066
0.013984521841290126
0.012687930498296274
0.012891433439389607
0.01404844664735784
0.015298395754859046
0.016396264345418
0.017299075261599843
0.017974120755988542
0.01840193999322425
0.018577385329194028
0.01850869077640982
0.01821495372384449
0.017722642963712815
0.01706195703508813
0.016263597866782543
0.015356369263161009
0.014365876997871943
0.013314023865859587
0.012219501281193612
0.011098649541427114
0.00996666433569795
0.008838767000759808
0.007730947455584894
0.006660319661610334
0.005644630006420442
0.004701164565414943
0.003845265335208648
0.003088664711434361
0.0024381584362458595
0.0019093521966185697
0.001537956847664363
0.0012771087481385087
0.001006010777072462
0.0006404502100644024
0.00023431141674617193
2.762503873822531e-06
0.00022557377422463575
0.001119750437967689
0.0025575173129390723
0.0036467819073026453
0.003602701050896246
0.02268124989533418
0.027974004477095384
0.03253325424889133
0.03515606790050485
0.035747967024060065
0.03468763716050552
0.03228350975170747
0.028920324117528005
0.02536583629781167
0.02258034983482543
0.021289473856156642
0.021896638554235473
0.023725165933527276
0.025610778792542116
0.0272160303552059
0.02847311685607555
0.029331137684760575
0.02976128906562369
0.02975919420008887
0.02934397020497699
0.028554411157813205
0.027443146766735857
0.02607019661687134
0.024496802150553786
0.022780701915531346
0.020973121191278414
0.019117419144365218
0.017249475180144306
0.015398841547318137
0.01359050099878065
0.011846663040435882
0.010187841066561842
0.008633550888634225
0.00720185261108138
0.005908304372861266
0.004764568450693066
0.0037769689242936324
0.00294556892831915
0.002266821639981764
0.0017243195367040419
0.0012443487135620499
0.000748542841394163
0.0002689101387189302
4.346448489548918e-06
0.000220821951279178
0.0011199226074459494
0.002745132190584792
0.004723501453140659
0.005933027102864209
0.005635630069097279
0.02275025416589925
0.028252345986759655
0.03366478565441012
0.037865688910143844
0.040392313603088086
0.041259194924069265
0.040530125033803543
0.038423294738950474
0.03564885881364995
0.03330945507790181
0.03241547732478974
0.033606520175471284
0.03612307050509992
0.038582520161311314
0.04058180361766232
0.04203376829461328
0.042875954509573065
0.04307731538331728
0.042641302081287434
0.04160484098301719
0.040033236115181704
0.03801216757525099
0.03563851795680917
0.0330112421179488
0.030223993616960484
0.027360225919130864
0.02449042819655918
0.021672137866786387
0.01895106634597881
0.016363241805989526
0.013937379984837461
0.011696462793500258
0.009658905843364781
0.007838538418029155
0.006243911419740897
0.0048774299674226
0.0037344968007838224
0.0028032806930152407
0.0020526230365344807
0.0014036149775923932
0.0007931598137085805
0.00026529588134512283
1.623426057221763e-06
0.0002654146207180192
0.0012386677700177082
0.0029598818195434727
0.005288941876408437
0.007658460815820018
0.008810458329911059
0.00812755651701611
0.02214436236776024
0.027640905141367373
0.0335952863902283
0.03908638400162914
0.04344967526658174
0.04640903496234167
0.04778454474258428
0.04758005892044783
0.04632746276819311
0.04509613825825974
0.045027692476145895
0.04689667048098856
0.049933394591130185
0.052707759323153705
0.05480564047358549
0.056135900924602765
0.05663941614153619
0.05629559658301663
0.055125343798209187
0.05318962680622954
0.050583734786051354
0.047428059797561456
0.04385726068884356
0.04000898862852228
0.03601440787429901
0.0319911692237705
0.028038975417756292
0.02423865306900536
0.02065252182683031
0.017326679820761595
0.014293635406589645
0.011574507687245467
0.009181009371070043
0.007116272600343157
0.0053751325082826654
0.003944248323192878
0.00280225140389943
0.0019205137222786043
0.0012424434158430449
0.0006616369965353973
0.00018535958958156847
2.440560532223589e-06
0.000380259549355227
0.0015157534884477329
0.0034145304265247784
0.005942079851174932
0.008816487724828164
0.01134532752668487
0.012226549968566803
0.011021180579759158
0.020984987140735243
0.026275614871899933
0.03242471315435843
0.03877129282024286
0.04460981386361291
0.04949418209352425
0.05306082520947771
0.05510555813844264
0.05590206423889914
0.05630768954228678
0.05738498639489985
0.05988258052390747
0.06310634199210065
0.0657899835784946
0.06757480737502419
0.06838593291360703
0.06818548527853971
0.06697708903103075
0.06480774295634621
0.061766065246820386
0.057976870048162765
0.05359222786507902
0.04878051809236354
0.043714277498973705
0.03855916163550812
0.03346494971039282
0.02855896340411797
0.02394322739477673
0.01969374264908847
0.015862145242275028
0.012478625490746298
0.009554932345831619
0.007087713814533955
0.005060901861617992
0.0034475892444131764
0.002211721900547478
0.0013095432206287965
0.0006914487584052486
0.00028830113982598025
3.7533704392545236e-05
6.52051782925197e-05
0.0006469949292332774
0.002017647518862475
0.004203240110637738
0.007009878243525473
0.010169836440871225
0.013319079891735438
0.015710036793847623
0.016084514249335737
0.0142251613328049
0.019421931688042526
0.02434240216810909
0.030359271413532018
0.03706883029669285
0.043840550532386426
0.05018560064943298
0.055653905622565246
0.05989026176687884
0.06288910066345021
0.06516020994107478
0.0674839928923631
0.07041958562159492
0.07342689279444749
0.0755882520231335
0.07665622862106616
0.07658975521776146
0.07538664150177593
0.0730849636298315
0.06976340212392897
0.0655395524175945
0.06056564373043865
0.0550211120236427
0.049102637045527704
0.04301208893020202
0.036944224518344095
0.031075632739516117
0.025555420522398554
0.020500242338368047
0.015991652760926577
0.012077327818481406
0.00877449247545949
0.006074422456315584
0.003947829511244723
0.0023496239340679097
0.0012230597065939835
0.0005032405201504605
0.00011995839723461175
3.872391518291986e-07
8.197171231864955e-05
0.0004256060014330713
0.001291962143423985
0.0029393467132227
0.005459170044413398
0.00865778206153401
0.012167775727141589
0.015645959639647496
0.018705418828240554
0.02061078203146269
0.02023463255806348
0.017608872736410153
0.017600287001303765
0.022034295693171016
0.0276552689376514
0.03426774376680998
0.041369647271423476
0.048525009758222895
0.05529714487500885
0.06126839861293343
0.06619690046389377
0.07018939198513834
0.07360638570369825
0.0766998977077401
0.07913049152936943
0.0804336250532577
0.08050217403296649
0.07933856350816675
0.07698388574390246
0.07351613040172877
0.06904894040904958
0.06373006230041187
0.057738391078562226
0.05127806274135999
0.04456982855166923
0.037838851560777945
0.031301346536484545
0.02515120063225688
0.01954815728277368
0.014610451249147413
0.010411083756948504
0.006979007412822533
0.004303926050837438
0.0023432590801780815
0.0010304320510430907
0.0002825239349809533
6.946491445942753e-06
0.00010667382941402307
0.00048412760875697267
0.0010442148156410598
0.0017510539809173873
0.002852849298101975
0.004730810184762648
0.0075219010795701926
0.011102417134758714
0.015056828711166818
0.018893301153959863
0.022252180433715105
0.02477924688810435
0.025820057607784885
0.024463496992239243
0.020996179969344927
0.015636875905808253
0.01951752360229506
0.02456313603857854
0.030716612039532853
0.03760213951457234
0.04488036772579009
0.052196835998777905
0.05915961963132837
0.06538144370760965
0.07060550120668779
0.07473738503932612
0.07767600047669167
0.07928208109605255
0.07954920920814516
0.0785101104424439
0.07621232970180537
0.0727417357612652
0.06821806438030796
0.06279195118496238
0.05664313784196442
0.04997776406392951
0.04302320739452254
0.036019541643101685
0.029207060609690017
0.022811518007348812
0.0170290205344744
0.012012506814194811
0.007863224127987643
0.004627001630793377
0.0022967191433532013
0.0008194760331050698
0.00010679426139151128
4.6077268363029294e-05
0.0005112760945091531
0.0013717771309302617
0.0024988993579859553
0.0037702839346521588
0.005072781711482419
0.006413543525070763
0.00826283586878738
0.01109129930398388
0.01483931314622394
0.019138441936322432
0.023380364269234774
0.02700885106469795
0.02970644708668979
0.031207564168323005
0.03100941677736936
0.028489683811664345
0.02416371835703637
0.013612321326080853
0.016915718775169925
0.02128940672916295
0.026747820974734708
0.03300729203322768
0.0398211202840448
0.04693834046242053
0.054048225129010835
0.06072032649107052
0.06644934484244344
0.07075994111254481
0.07323274844285653
0.07388827654394897
0.0730983637303425
0.07101286158574704
0.06772132597634611
0.06335189952919501
0.05806461392536001
0.05204677115346055
0.04550963874715756
0.038684790643130774
0.03181797276060069
0.025159877440160332
0.018952666269992376
0.013414614606782387
0.008724265373245325
0.005007013283185635
0.0023270332796683285
0.0006852085442344186
2.381387814023781e-05
0.0002365532754364048
0.0011819462810758116
0.002697633674680511
0.004613467902765019
0.006762054694502897
0.008986073474319704
0.011142893379567914
0.013107259758285519
0.014937545937047799
0.017323379968160475
0.02078477834077899
0.02503040556100212
0.029457577079884216
0.033322615647704654
0.036078549482910775
0.03751189874721178
0.037500698133809456
0.03575401413962128
0.03197699820118933
0.02685124639247939
0.011578548718837931
0.014313582989625331
0.017985335580449773
0.02263086658913948
0.028018981666728678
0.03396564457638471
0.040304713419312486
0.0468163256678096
0.05310119436922553
0.05854680856448269
0.062449261284117465
0.06418071440113662
0.06386816241066365
0.06213075737216291
0.059200873841740234
0.05520512190977052
0.05030832599972539
0.044705206253025556
0.03861377606627402
0.03226998187859273
0.025921868584989353
0.019821854555254027
0.01421610236967855
0.00933082042772526
0.0053570617839469046
0.002436034159998688
0.000647421124248028
3.3017534145973375e-06
0.0004484838419058247
0.001867641076581538
0.004097714208033296
0.006943608475896913
0.010194401609120782
0.013638075914994394
0.01707334887658187
0.020317790472641758
0.0232130236489904
0.02562767345323272
0.02766774999418639
0.030193006700568598
0.0337237790813091
0.037750236817553164
0.041494857405579934
0.04417399521683028
0.04533994499660362
0.04494076653549774
0.043035939706052906
0.039573358502990465
0.034572384370454914
0.028789684250420517
0.009575701031375911
0.011773860721264446
0.014759030912769873
0.018563682855244013
0.02298177020847265
0.02786007148382772
0.033081966085934195
0.03849507929051322
0.04376185238678059
0.04827942227475968
0.05128754731429099
0.052103161256525636
0.0509194749879181
0.04846018884148286
0.04500246818134068
0.040703623008976814
0.03575627941148103
0.03037885758150182
0.02480730778860291
0.0192875648074527
0.01406783774992638
0.009389297813222803
0.005475047120283347
0.0025169928228372784
0.0006623002318931828
1.0519183551804028e-06
0.0005572881584052684
0.0022853263171392145
0.005072308669366773
0.008746891855851511
0.01309291963114575
0.017866184782288252
0.02281168440028683
0.027679514123237495
0.032238106445748864
0.036283776293872125
0.03964715139681362
0.04219722127613288
0.04407116007306089
0.046197498230549985
0.04904021504617186
0.051945683367777676
0.05408332105749103
0.05476227100616831
0.05372285035100135
0.051104038295262076
0.047144709957044985
0.0420091368142284
0.03596534782034225
0.029745137209601414
0.007649190188685595
0.009356825884009849
0.011698447276174268
0.01469242141792654
0.018148167055363925
0.021924213019340215
0.025923717544180803
0.03003065887612977
0.033969078314382936
0.03721533661444617
0.03908954563285011
0.038995676763624414
0.03717060353822395
0.034322180906742765
0.030737843081653712
0.026596234869164393
0.022105079207189838
0.01749101263242056
0.0129902583382273
0.008839887303374757
0.005269093817309643
0.0024897765986411496
0.0006860676089711769
3.049573058839996e-06
0.0005356200283025081
0.002318855303535976
0.005321597081523195
0.009444482339048281
0.014523589917652477
0.02033958490893238
0.026631307500047822
0.03311298676286618
0.03949203877697368
0.045486412417717566
0.05083977698984634
0.05533313345810207
0.058793388044083
0.061098740572993235
0.06239198642397482
0.06353101298653079
0.0648732779771881
0.0657613207207052
0.06548262051997153
0.06357540593914365
0.060018303931959616
0.05511997736377009
0.049249627180375594
0.04272122014218391
0.035953171762295594
0.029568850187252138
0.0058579986600111895
0.007131686772767576
0.008890394073021397
0.011139178412737536
0.013706611047814492
0.01645935712870314
0.019306233579326884
0.02214734619049156
0.02475971041131448
0.026728480783380557
0.027529026605658653
0.02673701957325288
0.02461489546466753
0.021775468291603636
0.018489033710792076
0.014942219274338517
0.01134213907580544
0.007906362873705485
0.004853512577793973
0.002394621022639334
0.0007247980724796696
1.4793927263872184e-05
0.00040221930050040775
0.0019824616346777553
0.0047999785256700525
0.008840794367643273
0.014027685209891103
0.02021884210326236
0.027211452345806325
0.034750208656154545
0.04254045101633123
0.05026523753615353
0.05760406489704842
0.06425198398270124
0.06993711171060335
0.0744350396489074
0.07757940154928233
0.07926859947600458
0.07962493394621939
0.07929912520393931
0.0785219900641694
0.0768033287019085
0.07371269295229212
0.06910083636386101
0.06317014878496713
0.05633090885050344
0.04900442858643258
0.04156870342266934
0.034491182700898404
0.028236817274479763
0.004269572639896673
0.005173598220469103
0.0064241493781441224
0.008017375643402684
0.009809671374111796
0.01168223017390682
0.013549473923782944
0.015322416098777943
0.016826577762508274
0.01776127365808496
0.01777489587033671
0.016628766273841602
0.01458604231325105
0.012127566743314203
0.00948784698195215
0.00684581564655881
0.004392215266788448
0.0023204727320944975
0.0008183347208835214
6.0283066244204545e-05
0.00020052673655392289
0.0013661541235824065
0.0036501570332652476
0.0071043148865748106
0.011732279469850525
0.01748337385771965
0.024248530672683035
0.031858797868701806
0.040088409940843485
0.04866217008476688
0.05726796482478461
0.06557358746081528
0.07324611741761783
0.07997264541765915
0.08547989781796324
0.08955077803917175
0.09203680673212007
0.09286518592287944
0.09211943172394284
0.09016172432625887
0.0871145754365892
0.08278715502283235
0.0771154816503797
0.07025810528225448
0.06257022244908779
0.054479300275189435
0.04638314370793243
0.03864790619459536
0.03170949900503886
0.025864067518907057
0.0029436425337127778
0.0035476601094183596
0.004377600320754699
0.0054248161728627
0.006579758698338662
0.007746519878470012
0.008851894910104104
0.00982189297057657
0.01053007188135013
0.010781171607348245
0.010375466946871574
0.009222259378308204
0.007555950016690215
0.005721278723022843
0.003907123752298512
0.0022707364872835978
0.0009745082997692442
0.0001784083846536918
3.321483300339433e-05
0.000674472879592966
0.0022169274675426765
0.004749106999454337
0.008327709865537452
0.01297184540671935
0.018657250634126227
0.025311010830452327
0.03280797123451139
0.04096920628728421
0.04956456248005766
0.058319321851045915
0.06692560292695204
0.07505862389801662
0.08239544707490741
0.08863608402178592
0.09352358853296884
0.09686152363325273
0.098526875568202
0.09847720327402792
0.09675195466883359
0.09342875728340157
0.08856289918374109
0.08229067726242117
0.07488372607486248
0.06672456927004801
0.05822944123964034
0.0497760279528148
0.041689593184099476
0.0342760807789656
0.02789194705486693
0.022687250946717353
0.0019133078721221067
0.0022886225826107796
0.0027941529543451054
0.0034193960801487716
0.004089128612635835
0.004734763206163447
0.005301684850010525
0.0057361290547811
0.005957673634334702
0.005857943815462446
0.005348270939801301
0.004427630011985752
0.003278647296358419
0.002126959704880192
0.0011139365591323128
0.00036641124685495664
1.2567342025808671e-05
0.00017625774077958592
0.0009718883191276683
0.002499776861872873
0.004841699194652987
0.00805639659632083
0.012174823972921698
0.01719520380238511
0.023078140630032044
0.029742255662776884
0.037061352195330306
0.044863403420170644
0.05293311584141406
0.061017844662661115
0.0688380611406096
0.07610147589227022
0.08252020044693446
0.08782966420229943
0.09180720088119511
0.09428818920800994
0.09517818520954402
0.094459491845136
0.09213632515880008
0.08808398327763585
0.08232930542894874
0.07524767252756238
0.06732010413248957
0.05902996842836189
0.05077536416959166
0.042851000519537615
0.03549390642857452
0.028931645397467967
0.023425265294130075
0.019021878438636813
0.0011738637825896615
0.0013878239701582828
0.0016648936879443694
0.0019948977057296555
0.0023318068282828478
0.0026329827022328767
0.0028638707257092554
0.002992069820781618
0.002975726177566773
0.002768232610265702
0.0023473821130930235
0.0017486775275670798
0.001095296566292038
0.0005217442739678667
0.0001262428103837439
2.6576992835153336e-06
0.0002449657557860775
0.000943302811117041
0.002180294322261424
0.0040274838319988284
0.0065416854002670515
0.00976105451983244
0.013700897167287038
0.018349333546513996
0.02366322925423903
0.029564815985976024
0.03593979229334486
0.0426372419193087
0.04947228018424542
0.05623183452839007
0.06268326124239482
0.06858636088016187
0.07370726844634805
0.07783378434504658
0.08079035756095616
0.08245131387487738
0.08275079657070851
0.08168807659432789
0.0792516757666727
0.07523754626191641
0.06966877052794725
0.06300425693157305
0.05576923569986552
0.048428055204524964
0.04130921029701542
0.03462216021711889
0.028524963026752774
0.02317164005639318
0.01873542958030116
0.015208762946688895
0.0006854153307422444
0.00079543781427868
0.000928413254669686
0.0010761636678537077
0.001214122546954212
0.0013198566397103594
0.0013755943625630355
0.0013663258414486506
0.001276606129001954
0.001095310717970117
0.000829608842160173
0.000517132787462864
0.00022953531293234538
4.032504360490102e-05
1.261347860525173e-05
0.00020987924443870677
0.0006958553986036283
0.0015320315285041607
0.0027751723528668675
0.004474660948152163
0.006669560534302602
0.009385234542682832
0.012629655763230264
0.016389669784690926
0.02062753641726197
0.0252784206335713
0.03024913427982452
0.03541880036059428
0.04064168076499114
0.04575236361232165
0.05057307097763002
0.05492318388494606
0.058629669970736056
0.06153843064952175
0.06352509605138666
0.06450435823493948
0.06443690480869109
0.06333296179814932
0.06118701760082216
0.057828770224217015
0.05329076401801217
0.04796725182327882
0.042288223805786486
0.03661281469225718
0.03117786979936836
0.026122194148274512
0.021545843454602056
0.01754546781576942
0.014225641984714165
0.011564003926130582
0.0003874835823012675
0.0004370216307709675
0.0004900074465668721
0.000541150872779559
0.0005795977005448272
0.0005959537863829643
0.0005834663201974963
0.0005378871322727966
0.0004574128062404577
0.0003453367248348308
0.00021479030816731482
9.14729704987272e-05
1.172525658735137e-05
1.3148228572772126e-05
0.0001330019774820895
0.0004101786453301387
0.0008842523653145886
0.0015941185617681995
0.0025765019109897794
0.003864188934853235
0.005483842898478221
0.007453305108398492
0.009778535996416307
0.012450435608448227
0.015441899578374886
0.018705712010170843
0.02217370158319777
0.025757575307991255
0.029351595985698607
0.03283712866742048
0.03608873478848506
0.0389814003661489
0.04139824114200826
0.04323822032760644
0.04442311289513719
0.044903216722872
0.04466123591510194
0.04371391080106219
0.04207401764915259
0.03966614570705048
0.0365357727574769
0.032933123574943664
0.029124090700673805
0.02532898297156657
0.02169399827281802
0.018306282581254774
0.015227779960661483
0.012514842235149514
0.010223516804432498
0.00833942390788113
0.00021746938544504662
0.00023541778072501648
0.00024998459018122136
0.0002586439814893097
0.0002580422502524379
0.00024561111593675425
0.00022008591076343366
0.00018188531535671796
0.00013357905190400845
8.072750272050876e-05
3.274616184793799e-05
3.0797135735093395e-06
8.368863543538729e-06
6.706248302202601e-05
0.000199199889547234
0.00042619330330750184
0.0007702912809074638
0.0012539943688902406
0.0018993461495002207
0.0027269241570216734
0.003754416712595437
0.0049946992476697614
0.006453482740953374
0.008126724789581439
0.009998205162059891
0.012037733557051896
0.014200383233974222
0.01642727185685144
0.018647756772786416
0.02078326145713659
0.02275206223391605
0.02447469700913361
0.02587935932341682
0.02690680316795503
0.02751438108968503
0.02767887272569443
0.027398051364092055
0.026690759394163762
0.025585778534831127
0.024098086870603965
0.022280659841607844
0.020242500102432677
0.018096271169003586
0.015939864093984513
0.013846454255512858
0.011866853661741816
0.010038033572697598
0.008388698033846356
0.006941540720049324
0.005695484125730344
)
;

boundaryField
{
    "(inlet|outlet)"
    {
        type            zeroGradient;
    }
        "(front|back)"
        {
            type            empty;
        }
    "(top|hills)"
    {
     	type            zeroGradient;
    }
}

