/*--------------------------------*- C++ -*----------------------------------*\
| =========                 |                                                 |
| \\      /  F ield         | OpenFOAM: The Open Source CFD Toolbox           |
|  \\    /   O peration     | Version:  v1806                                 |
|   \\  /    A nd           | Web:      www.OpenFOAM.com                      |
|    \\/     M anipulation  |                                                 |
\*---------------------------------------------------------------------------*/
FoamFile
{
version     2.0;
format      ascii;
class       volScalarField;
location    "0";
object      nutCoeffs3;
}
// * * * * * * * * * * * * * * * * * * * * * * * * * * * * * * * * * * * * * //
dimensions      [0 0 0 0 0 0 0];

internalField   nonuniform List<scalar> 
1000
(
0.1288546422121793
0.14508862596925798
0.16293013152719543
0.17646543541672718
0.18253483531639614
0.181531010046505
0.17433064875565604
0.16214710657166703
0.14766592324021927
0.13468728756684714
0.12642668281918518
0.12456328025639328
0.1262261201997779
0.12706207119819724
0.1260096060473772
0.12298389658862746
0.11795337590955068
0.1109393606480079
0.10201406798517201
0.0912977569843107
0.07895595646660633
0.06519620910913931
0.05026509988158145
0.03444261678866908
0.01803551955135465
0.0013685827544019028
-0.015227590976727143
-0.031426459607202334
-0.04691780769564817
-0.06141688661673488
-0.07467111493775495
-0.08646575547861739
-0.09662536972102255
-0.10501578793252225
-0.11154473585223572
-0.11616186924543981
-0.11885951838735923
-0.11967287287712021
-0.11952278330735487
-0.12237370109167152
-0.13094496446105955
-0.14376476759330548
-0.1578284076443433
-0.16950133730484487
-0.17618031947775536
-0.1767032863534056
-0.170321820961716
-0.15674449017914074
-0.13878406382812722
-0.12186134346855715
0.11804848049272969
0.13435730127790987
0.15538495759089815
0.17501895312228988
0.18847949294351263
0.1950606746322753
0.19500847080778042
0.18893707138322882
0.1789439517169196
0.1687186580951771
0.16193041493382332
0.1607743635211002
0.16261153879917487
0.16313136683599674
0.16127160342699212
0.1569449836890361
0.15013013973608944
0.14087007492497136
0.12926880922445988
0.11548722725972034
0.09973866772780608
0.08228421283954668
0.0634284934226911
0.04351228267200812
0.02290497456882034
0.001994600736672313
-0.018825123204137234
-0.039164984994793366
-0.05865363014590641
-0.07694695686463762
-0.0937355139050786
-0.10875186273129533
-0.1217728089782307
-0.132623213462078
-0.14117787129611448
-0.1473628423301192
-0.15115678615573255
-0.152591829930738
-0.15258977338354207
-0.1550895196810961
-0.16257622552442355
-0.17305785384664774
-0.1831042866238018
-0.1892016336806644
-0.1893056656519192
-0.18283721503715514
-0.169675686544861
-0.15056130995099715
-0.12977859604315028
-0.1129140585515437
0.1022130569630028
0.11796586989583778
0.14121773542466
0.1660268167783533
0.18635342130157026
0.20053071781746273
0.20828774561226027
0.20970215856563193
0.2060670837997364
0.20041811098412993
0.19633824012538542
0.19627032616321965
0.19810976456979953
0.19805985989042543
0.19516889466802242
0.18935478739397787
0.180611843306737
0.16900851040479592
0.15468289002513314
0.13783764564340117
0.11873433390395438
0.09768725993125628
0.07505751155634915
0.051243577596755845
0.02667180143590304
0.0017853498410853703
-0.02297031179706768
-0.04715773915775491
-0.07036005026150303
-0.09219050701484864
-0.11229865231049774
-0.13037685785139141
-0.14616297533846936
-0.15944391472255215
-0.17005925641445205
-0.1779036448998157
-0.18293047785640912
-0.18515478639611727
-0.18539636377807733
-0.1871487302347187
-0.19239154256494106
-0.19886246005046712
-0.20318887590049273
-0.20244120839317242
-0.19532276304079182
-0.1818001387805665
-0.16228208447496884
-0.13839616813475933
-0.11560688935749562
-0.09940742498377719
0.08184552010921647
0.09638195842781185
0.12065641934435294
0.1492534967338509
0.17532580601632897
0.19640876065453516
0.2118081275528079
0.22118441288843824
0.22500534227853525
0.22529222337235355
0.22497298920130931
0.22630714491799042
0.22795481344445376
0.227122027134828
0.22308536614151656
0.2157756543945413
0.20520698820288608
0.19147351809020755
0.17474439188928403
0.15525779399264641
0.13331475506086152
0.10927155765560058
0.08353271612652471
0.05653964076530549
0.028759952327420703
0.0006747700934999982
-0.027236409737365255
-0.05450541130255415
-0.08068851801406973
-0.10537362281018933
-0.12818549521674646
-0.14879103536576366
-0.16690036252633514
-0.1822706729967674
-0.19471000654611942
-0.2040813180013545
-0.21030824766283007
-0.21338051374074227
-0.21391470116718295
-0.21453603874867047
-0.2165112743550674
-0.21767457880645574
-0.21519713227832207
-0.20705566826218624
-0.19274931226388162
-0.17269773342738268
-0.1477252101483257
-0.12017500762721293
-0.09635868609958995
-0.08144142563648153
0.057822090715610855
0.07050298734726383
0.09445497437037126
0.12507368655128587
0.15522116537179984
0.18186255167786194
0.2039590290820284
0.2208474865353797
0.23223557211433038
0.23897662094811392
0.24293531476039995
0.24577709410919998
0.24704505847754626
0.24531870204836914
0.24019481863722467
0.23162296722243506
0.21963728980747455
0.20435241193690343
0.18595799009409866
0.16471260801011847
0.1409373085300244
0.11500804211014364
0.0873480855578081
0.05841662874477023
0.028697369785953955
-0.0013141075684738267
-0.031125578413099937
-0.060258056348362336
-0.08825769832746858
-0.11470269535842961
-0.13920739624692385
-0.16142680375707946
-0.18105662720986843
-0.19783634911951276
-0.21155356047476437
-0.2220479639065704
-0.2292191070271263
-0.23303311937481172
-0.2338306321988842
-0.23304788144361768
-0.23112083732735653
-0.22632337139450398
-0.21673334702790145
-0.20140372263210343
-0.18059828741840445
-0.1550846704661085
-0.12598556720155443
-0.09616451701591633
-0.07241732849335938
-0.05937915832045929
0.03131335826721728
0.041576101950301064
0.06385755422192953
0.0945263897541464
0.1266566432091964
0.15693716571980962
0.1840934909065592
0.20721460712876594
0.2253371431966045
0.2381372608267195
0.24622472345658755
0.25041889087088764
0.2511611050899282
0.24857169594541034
0.2426117353650398
0.2332527994205366
0.22054536191523696
0.20461416365686225
0.18565277334336525
0.1639179128713631
0.13972399802152038
0.11343651522710352
0.08546567764359148
0.056256344303206814
0.02627768906266447
-0.003988090930915228
-0.03406076103849665
-0.06347058478565416
-0.09177108804455274
-0.11854547211541085
-0.14341095904649556
-0.1660232971836559
-0.18607707413672947
-0.20330832376686464
-0.21749845688066705
-0.22847835685403836
-0.23613561784777368
-0.24042193707617263
-0.2413701046505039
-0.2390647749882624
-0.2330834804113043
-0.2223746427542799
-0.20612784634086345
-0.18451781692121577
-0.15849075620757727
-0.12905206551638074
-0.09750235090377855
-0.0670130061663026
-0.044488923339860674
-0.03387355006119866
0.003640297546151047
0.011046445094046765
0.030456564762264174
0.05923734638816541
0.09107477782722193
0.12268815963780796
0.15271944222832037
0.18010904049672258
0.2033485682531214
0.22103654771038847
0.23252455129694272
0.23771998255403268
0.23788881171068735
0.2346361723293433
0.22827760995962068
0.21880736589328265
0.2062860470291124
0.1908356936733617
0.17263490056431205
0.15191448100860488
0.1289538843291261
0.10407684554016393
0.07764771835805429
0.0500641249354642
0.021749141562751793
-0.006858076842325406
-0.035314971300698474
-0.06318443358811711
-0.09004638368581079
-0.11550540074700331
-0.13919623190168612
-0.1607891202500102
-0.1799908623291842
-0.19654823123446036
-0.21025098872059086
-0.2209358890372147
-0.22849234948133804
-0.2328691295612744
-0.2337971076897662
-0.23001098563181702
-0.2202885487194737
-0.20436969604434302
-0.18261247519385979
-0.15624684094373748
-0.12676896100907167
-0.09530706116094362
-0.06322152111867353
-0.033774244708329244
-0.013611810882225201
-0.005875173144835654
-0.023882414374543793
-0.01961670347657498
-0.004013922019525813
0.021206559695142704
0.0505934833918703
0.08114564106103735
0.1115790309607246
0.1408137246740594
0.1669843269095369
0.18782718151720926
0.20159256106706475
0.20736031001773828
0.20705878135446767
0.20352061017105652
0.19735742887712168
0.18858416998464594
0.1772643737109079
0.16350533456494412
0.14745405048112337
0.1292950628352111
0.1092492854144029
0.08757315141665453
0.06455781382047471
0.04052571594628247
0.015825908557365934
-0.009172510911301912
-0.03409072901411944
-0.05854782004601446
-0.08217210662892754
-0.10460913039181546
-0.1255286575198276
-0.14463092054461554
-0.16164982067966926
-0.176356401142348
-0.18856247538446153
-0.19812330513765916
-0.20494214169894365
-0.20897450989390973
-0.20968809909200714
-0.2046210813912401
-0.19189111741235804
-0.17203749390131268
-0.1465027801489659
-0.11739614038327716
-0.0865890052050591
-0.055222299870116946
-0.024609560382364386
0.002107680406409238
0.018873051684543427
0.023396305289117503
-0.05006571073869077
-0.049057662232812285
-0.03787411160511177
-0.017463515943851475
0.007697761280830896
0.035041501003413314
0.06347259916284721
0.09201094855709749
0.11866253006233002
0.14062478196530998
0.15534571001517755
0.16127209853337246
0.160754041599178
0.15744489677806847
0.15215789018275652
0.1449236879570855
0.13580128893798454
0.12487342068929316
0.11224402604475958
0.09803818587351655
0.08240388888275624
0.06551422101969638
0.04757009592154781
0.028800115055001005
0.009459495166765652
-0.010173903829823886
-0.029806589130710444
-0.049136261878353196
-0.06786114820469932
-0.0856883959122447
-0.10234192348685035
-0.11756946002169855
-0.13114739114826482
-0.14288510326975976
-0.15262856604034822
-0.16026268435557497
-0.1657138723352078
-0.16895217162566906
-0.1692498296414509
-0.16323885996900503
-0.14858209873073058
-0.12651659414164249
-0.0993529469438467
-0.0698137641071418
-0.039949673038688835
-0.010820784945319734
0.016398283913870493
0.038875415461665695
0.051408163334917836
0.052533381277170436
-0.07390082678888317
-0.07610093041551791
-0.06961872934567835
-0.054790132084816805
-0.03509906189237417
-0.012612602536553651
0.01181723008885509
0.037386993642102614
0.062187081030326496
0.08324383001423431
0.09759688963785877
0.10332748665276453
0.10292989546111397
0.10040285592379725
0.09664957886230421
0.09170789052784795
0.08562393641036846
0.07844835193351185
0.07023551661594615
0.061045506143797494
0.05094840286956695
0.04002915431404561
0.02839256392829703
0.016166408519738055
0.003502591315128036
-0.009423962274039773
-0.022419364030285178
-0.03527584375733091
-0.047779185484898096
-0.05971629409281214
-0.07088273292798701
-0.08109042663030909
-0.09017326695714438
-0.09799220059298923
-0.10443878710843449
-0.10943692633728094
-0.11294391540727548
-0.11495015568474651
-0.11462301125906996
-0.10808315217378393
-0.09278524938950763
-0.07046420635104812
-0.0439796014423317
-0.016348727288333
0.01039378085687432
0.035343758984033295
0.057539531445447926
0.07460623030041055
0.08235906627457308
0.08007019451602736
-0.09455620732627373
-0.09975393111454277
-0.09794748676258368
-0.08901365147514835
-0.07548112971319684
-0.058899709950625045
-0.03986717582984091
-0.018978613083562242
0.0020964910946002237
0.02054435933379036
0.03339540088324875
0.03865273135976912
0.03869965962131935
0.037429319826066114
0.03572681052723089
0.033625607068096905
0.031149902773527895
0.028312304545410463
0.025115028048556743
0.021553804457131412
0.017623902792941168
0.01332658478015318
0.008675390231151462
0.0037008293136417663
-0.0015467740291382646
-0.006996472354513352
-0.012558289231827271
-0.01812632405388568
-0.023583907061944114
-0.028809605681588177
-0.03368394369544929
-0.03809632529497074
-0.04195108728726904
-0.04517230294103724
-0.04770700226328101
-0.04952627683585513
-0.05062434952183203
-0.05101637344570687
-0.049863637022404
-0.04321523161706398
-0.02857354176000687
-0.007912804289234182
0.015728302394561838
0.03936744595082062
0.06116417981537673
0.0804256232086967
0.09645033088669448
0.10740682783350738
0.11017924543675871
0.10463351108789472
-0.11135326314375638
-0.11918476543105931
-0.12174683958211573
-0.11860097448930706
-0.11139558038463751
-0.10117671131538948
-0.08829550384371541
-0.07313236201977835
-0.05701868016405368
-0.042365154794439225
-0.03182607015262521
-0.02723082913749634
-0.02650149400815181
-0.026205735143008425
-0.025565074114859265
-0.024562443251663468
-0.02320390392484743
-0.021518422128176187
-0.01955475979751528
-0.01737590289791355
-0.015052386124217504
-0.0126551980894977
-0.010249645842643394
-0.007890181688964873
-0.005617204468365934
-0.0034551570405638127
-0.0014123882105429387
0.0005173074576393371
0.0023519123110774484
0.004116848289176325
0.00583981433777019
0.0075452249365355545
0.009249070684126158
0.01095496827486395
0.012652292269803899
0.014316468556458685
0.01591169398947331
0.017395241394922607
0.01952108528684752
0.025903900889532
0.03876448610799377
0.05615696196187992
0.07522424333878022
0.09331661302111983
0.10892892309984278
0.12160702452031637
0.13092273690657136
0.13560465680596978
0.13355538564116387
0.12507328782591165
-0.123760209790305
-0.13372248269332268
-0.14008593574417028
-0.14223092092160777
-0.1410380900461574
-0.1370895283438018
-0.13050830385976336
-0.12146523585780226
-0.11090011633129788
-0.10066695613897084
-0.0928886837607139
-0.08905813326099839
-0.08752853565174896
-0.0855622926403479
-0.08254751074869784
-0.0784927864035905
-0.07343876171222523
-0.06745538918113463
-0.06063707622731337
-0.05309606022218263
-0.044955695327551955
-0.036343922294288
-0.027388032095275714
-0.018210197863777616
-0.00892445937416054
0.00036493237792671943
0.009564900561894222
0.018592750914721966
0.027375165284256802
0.03584549348031211
0.0439402356152186
0.05159545955325432
0.058743257659121466
0.06530985161562426
0.07121591479752254
0.07637901178637928
0.0807186867909513
0.0841629938016105
0.0873121342527631
0.09313219303641317
0.10340470531993777
0.11644386299922341
0.12987037434514193
0.141587032877031
0.15050681320812992
0.15640997860086844
0.15911958212353328
0.15788294633547603
0.1514991018122973
0.14054295520733695
-0.13142659415592226
-0.14290393333200457
-0.1522710748972277
-0.1588456110222324
-0.16288995262120945
-0.1645920869209828
-0.16388155252249836
-0.1607395327477566
-0.1557015656737109
-0.1499926181023419
-0.14508954162448812
-0.1420569560702324
-0.13973934368482574
-0.13620883639669656
-0.1310493343493247
-0.12429776615480113
-0.11602790184532344
-0.10634535029469919
-0.0953812600687861
-0.08328546664109487
-0.07022016975647259
-0.056354228533735826
-0.04185918329341463
-0.026905921665224274
-0.011662367567571644
0.003707610755976901
0.019045530784991205
0.034197834806186295
0.04901565108646784
0.06335294170722713
0.07706451984893521
0.09000430225419763
0.10202387431097674
0.11297336760608075
0.12270452666721691
0.13107605722145713
0.1379616511716285
0.14325856896840386
0.14737302797064838
0.1524466007897104
0.15974512767830984
0.16800538911697477
0.17550959533319946
0.1808240635346757
0.18329666934680824
0.18291076741543072
0.17969673724446966
0.1733428056967392
0.16338064095980828
0.15052711683657882
-0.13424960341491252
-0.14655705934248897
-0.15795440159337407
-0.16778854712176047
-0.17587867446778174
-0.18211605418617174
-0.18628882711247782
-0.18822909402569662
-0.18810391232259868
-0.18652119796034156
-0.18429285773918577
-0.1820302283197927
-0.17905996167187388
-0.17426235607797944
-0.16741477211924308
-0.1585781122453816
-0.14785220683840383
-0.1353694447948228
-0.12128755414856911
-0.10578269932174811
-0.08904334691953843
-0.0712652305422666
-0.05264811844699117
-0.03339318760752974
-0.013701806131392647
0.006224985188074373
0.026187095910665942
0.045983970226453466
0.06541422644724425
0.08427397665892836
0.10235510517035389
0.11944546953954772
0.13532878247972552
0.1497887714797962
0.16261489127626097
0.17361123951785976
0.1826072054980176
0.18946879614596926
0.19439937427313964
0.19868581234840196
0.20308614972242245
0.20682514240786073
0.20889637534526417
0.20852708057950053
0.20546037352329255
0.19983805038967625
0.19184598094455194
0.1815166880268102
0.16893084340098347
0.1548396275922826
-0.13244008966473922
-0.1448813165683832
-0.15724856301461163
-0.1689756105987664
-0.17961806827830382
-0.18888115711325365
-0.19647355332783523
-0.20213522305595533
-0.20574925969495172
-0.2074073503412249
-0.20733770842925123
-0.20573936920854635
-0.20234068968209304
-0.19671253318344314
-0.18879359488994613
-0.1786593242551975
-0.16642549731564915
-0.15224097060016145
-0.13628026070741148
-0.11873593624944788
-0.0998123129816865
-0.07972017004881864
-0.05867323021315745
-0.03688603170587377
-0.01457300129309635
0.008050800682178652
0.030769119442472875
0.05336156913462647
0.0756019363940605
0.09725518592677491
0.11807630865120367
0.13781001864238224
0.1561931593139562
0.17296047121022637
0.18785356344650336
0.2006325038259543
0.21108942827678664
0.21906194668721596
0.22457286946922353
0.22815773725970778
0.23014004712917005
0.23019602691640462
0.22795419167628783
0.22320556717546525
0.21600880670025221
0.2066154426932186
0.19531424942829073
0.18237699068420782
0.16824349728497417
0.15361985927596722
-0.1265463333549474
-0.1384785277966782
-0.15078385365082092
-0.1630057201186252
-0.17459816930284278
-0.18518608975143455
-0.19445707105147614
-0.20211853631389037
-0.20788601497732948
-0.21150872236036738
-0.2128038282202031
-0.2116656964661261
-0.20809001068317856
-0.20212440371446133
-0.19381531007940955
-0.1832423975162491
-0.1705265233869738
-0.15582248760813583
-0.1393110266360463
-0.12119077378830012
-0.10167068468307423
-0.08096402544484091
-0.05928406611754734
-0.03684174608055505
-0.013845342713842185
0.009497878009232873
0.032978899144973414
0.05638251643232074
0.07948297766044365
0.10204049775710315
0.12379794830504862
0.14448216211128428
0.1638066181226903
0.1814793898004558
0.1972142534365559
0.21074469238324497
0.2218395736255028
0.23031801593518678
0.23607257859273073
0.23909427015080362
0.23939439641566662
0.23698473940939438
0.23195703455440503
0.22450060408874903
0.21488365967380177
0.20341751744205452
0.1904417836121326
0.1763597663648424
0.1617869307755207
0.1473341932935814
-0.11740874902679219
-0.12830239118942305
-0.13966069476972898
-0.15113315706748645
-0.16219986821787874
-0.17249110563785075
-0.18171747965128587
-0.18960282600778697
-0.19581521586116807
-0.19996548198883332
-0.20168443869304137
-0.20071720523323916
-0.19717731320087886
-0.19133300989980026
-0.1832778147902874
-0.1730878006229501
-0.16087875018143122
-0.1467994943638401
-0.13102363490961472
-0.1137411321387073
-0.09514994209598082
-0.07544929891867011
-0.054834924845326705
-0.03349684301653226
-0.011619850086414852
0.01061371434291522
0.03301897205966091
0.055402473175922895
0.07755616826896054
0.09925241356917984
0.12024081966903977
0.1402498060277551
0.15899051601120634
0.17616643006692304
0.1914862252868879
0.20467908170968288
0.21551096107702147
0.22379964599750304
0.22937636813517134
0.23195247137722497
0.23138103599932583
0.22785446797830922
0.22170584883848965
0.21332082658762244
0.20305792461646943
0.19123752168364608
0.17820030017024951
0.1643793677167677
0.15040330819815462
0.1367650166634254
-0.10604331012063786
-0.11552569496031913
-0.12529153160796763
-0.13508001863307664
-0.1444839949647706
-0.15319743946096356
-0.16098048398690173
-0.1676050229375186
-0.17278882703703494
-0.17618590250677818
-0.17745477827618308
-0.17635213944802278
-0.1729871247393715
-0.16762030551178114
-0.1603410459636561
-0.15121706243067778
-0.14034993841817536
-0.1278689801216924
-0.1139239380084536
-0.09867690077593023
-0.08229479378066057
-0.06494307899596238
-0.04678184561321253
-0.02796449731083659
-0.008639449946515509
0.011045486171571788
0.030937237417691384
0.05087033859035643
0.07066021548678915
0.09009866029705749
0.10895160766897774
0.12696157532846125
0.1438537340714001
0.1593465334532763
0.17316555194284844
0.18505868001035838
0.19481146214770947
0.20226052872502054
0.20724571240609355
0.20945936481783137
0.20875093800717887
0.20534312535213511
0.19959105841158806
0.1918805193286365
0.18254659552632255
0.17187317320602288
0.16015918879345556
0.14778258435757527
0.13525828346266372
0.12295847915245285
-0.09348396374830834
-0.10135780745490668
-0.10917004293352912
-0.11673413674688887
-0.12380346279892249
-0.13016858345164734
-0.13565105257105006
-0.1400868895672471
-0.14330266388014787
-0.1451130962688388
-0.14534832900285555
-0.1438907599251834
-0.1407753173060631
-0.13611040929966509
-0.12995021301055085
-0.12235168575752184
-0.11339434235895247
-0.10317568263492267
-0.09180553249840624
-0.07940035205687436
-0.06607795435454786
-0.05195375042559315
-0.03713896133956426
-0.021741245465993136
-0.005867695055459323
0.010370155251538334
0.026849935153966803
0.04343251103123408
0.05995603838613153
0.0762334930220662
0.09205243430843418
0.10717919995123334
0.12136661292060542
0.13436528002652645
0.14593669816450106
0.15586712519184157
0.16398026359562654
0.17014715004802597
0.1742676665130296
0.1762063446653652
0.1759219879637289
0.17355519461030147
0.16931938817464592
0.16345390579014338
0.1561866558682456
0.1477319808334211
0.13831752274783443
0.12820790926584105
0.11772127014778862
0.10711687187705074
)
;

boundaryField
{
    "(inlet|outlet)"
    {
        type            zeroGradient;
    }
        "(front|back)"
        {
            type            empty;
        }
    "(top|hills)"
    {
     	type            zeroGradient;
    }
}

