/*--------------------------------*- C++ -*----------------------------------*\
| =========                 |                                                 |
| \\      /  F ield         | OpenFOAM: The Open Source CFD Toolbox           |
|  \\    /   O peration     | Version:  v1806                                 |
|   \\  /    A nd           | Web:      www.OpenFOAM.com                      |
|    \\/     M anipulation  |                                                 |
\*---------------------------------------------------------------------------*/
FoamFile
{
version     2.0;
format      ascii;
class       volScalarField;
location    "0";
object      nutCoeffs22;
}
// * * * * * * * * * * * * * * * * * * * * * * * * * * * * * * * * * * * * * //
dimensions      [0 0 0 0 0 0 0];

internalField   nonuniform List<scalar> 
1000
(
5.587363503136538e-06
9.363539696004233e-06
0.00019162415829184097
0.00048185198093393363
0.00032877435782814216
1.5976280628464226e-07
0.0008082183424751284
0.00394226720647876
0.009049201471543636
0.014283288258368262
0.01819151021611485
0.020511202277292778
0.021651480587359013
0.021999453127794534
0.021596525307221066
0.020430391782361012
0.018559153220072244
0.016109337594493477
0.013264257694769037
0.010244810959077234
0.007286551012320914
0.004616714442264851
0.002434487370153572
0.000895599205385606
0.00010191157926891062
9.523373754335629e-05
0.0008549845619036591
0.002299744816815953
0.004293121568972038
0.006654482456364749
0.009174373619013432
0.011634010652003927
0.013826165421979028
0.015575476313712939
0.016754889213051044
0.017295906305187028
0.017191628902006505
0.016492242118041147
0.015173828886258756
0.012870542472041703
0.009397204271198773
0.005318197699685437
0.0018985360577509526
0.00022077502261851566
4.375155644430278e-05
0.00027556040812464665
0.00019016616127660464
2.597991493797102e-06
0.00010824223868150128
0.0002425443422288413
0.0001577798460261997
7.524881273557404e-05
9.448650215463057e-06
0.00033016627155115657
0.0007159997039337716
0.000538315327106756
4.074706802432109e-05
0.00045737919942146003
0.0029059902448562245
0.006918068297516665
0.010764230788194289
0.01295772778946071
0.013587501829327758
0.013542786323201486
0.013042272892854978
0.01210383747310338
0.01078557169040101
0.009181130611671551
0.007409840112053043
0.005603675040664043
0.0038936711073201406
0.0023981097885420397
0.0012139288379113989
0.0004112654760822461
3.078328521281561e-05
8.267329029599208e-05
0.000546824084084258
0.0013741202731261156
0.0024893637257697248
0.003796327824198561
0.005185115102739378
0.006541686407722671
0.007758066148959456
0.00874238130656433
0.009426955900389946
0.009773433631274503
0.009774460549549153
0.00945180874526338
0.008662962215577585
0.006773644691620512
0.0038950983714236853
0.001295821964969638
7.636063198731602e-05
0.0001472703694317888
0.0004716638629460246
0.0003581259412215539
3.574974061892925e-05
0.0001169558824501467
0.0004961997316628586
0.000646666236761388
0.00046947918263190544
0.00042491905326414706
0.0001306218214572272
3.1603950318429894e-05
0.0005156228948493101
0.0010635334473715755
0.0009709525824114924
0.0002919007892119035
4.330440827543719e-05
0.0010522846961051194
0.0027558430149075006
0.003787176391036533
0.0038686773716392862
0.0036496922977891193
0.0033201010407733944
0.0029036734840330123
0.0024314490334509907
0.0019381217254888555
0.0014578204888137708
0.0010202440238661426
0.0006480131937857477
0.0003556908663202607
0.0001503374806135477
3.298836651794959e-05
3.9840624593675874e-07
4.642823343220497e-05
0.00016281357345843364
0.0003393642905717287
0.0005638617932644801
0.0008220118089146587
0.0010976832621995727
0.0013735960696600012
0.0016323556473133208
0.0018577016686321093
0.002035775815190922
0.0021562103422107033
0.0022129311741625438
0.002204576857601396
0.0020195213972679913
0.0012854619665904313
0.00032030251694633937
1.2749350163041247e-05
0.00044693115175190723
0.0008223250278788752
0.0005954984424129857
0.00010971760146563937
6.972301143239317e-05
0.0006206014253578511
0.0010686713226787698
0.0010785075869707958
0.0007178070929682814
0.0008530468806150193
0.000645653563298574
0.0001382283797604032
6.012348799864924e-05
0.0007054640831148789
0.0015316573416469493
0.0017274473381185622
0.0011005248278333935
0.0003409342396068549
2.708288634553078e-05
4.678047618406359e-08
4.874589372087174e-06
3.0842698234331065e-05
7.649495245056714e-05
0.0001350120932756243
0.0001963835385481867
0.0002491366868986539
0.00028265799357014387
0.0002896613525164383
0.0002681360281398079
0.00022212642193526706
0.00016097482680854492
9.715148182317621e-05
4.3289934538884164e-05
9.292107313451274e-06
2.8994406147146645e-07
1.5918123918828567e-05
5.090105847635427e-05
9.662951113610965e-05
0.00014322375407515626
0.00018158472784819351
0.00020503187908879196
0.00021028064664634473
0.00019764684082708848
0.00017053671613618849
0.00013439886971843088
9.542557231760017e-05
7.818059046010198e-05
0.000179804073390857
0.0005742903246370449
0.0011624211678143502
0.0013780142421500675
0.0008931019145449669
0.00019582590939847008
3.8192498136170126e-05
0.0006263710389278564
0.0013376114674434124
0.001473013766827894
0.001236640090224654
0.0006614698907958056
0.0009881062121559973
0.001188492436789587
0.0008121095242911055
0.00017043718067186883
5.866031713191952e-05
0.0008190412762710532
0.0020181725603919047
0.002812637662729307
0.0028614887249427848
0.002628668695689251
0.0027391242464920025
0.0032457510753320317
0.003791551592516672
0.004226145082367553
0.004492184757169024
0.004545089239132684
0.004361605937914808
0.003946389827953475
0.0033350171251657528
0.002592171551011032
0.0018045310717920403
0.0010691026947113732
0.00047881330395240017
0.00010818506518730123
1.8130940192210638e-06
0.00016783293411463818
0.000577437648494432
0.001170209376106939
0.0018640393994328968
0.0025677235027870087
0.0031941624810583034
0.0036719662455056176
0.003953896476688334
0.0040209868283014585
0.003881976804654259
0.003568663881218168
0.003128402756836486
0.0026853733400012156
0.002508325350373221
0.0024852996928955546
0.002102026403950104
0.0011747269923909729
0.0002445816738206738
3.6255977588734326e-05
0.0006635731903865429
0.0015080874217734122
0.001754834632622723
0.0013557018801132487
0.0009361817666559475
0.00030462917471962023
0.0006520638388955728
0.0012368947650638526
0.0015197888221891007
0.0010678678219270584
0.00029934232765655393
1.5938550168744355e-05
0.000730478802588592
0.002215451514242716
0.003744910491720067
0.0049366209801145105
0.005982375117639437
0.007038576509220705
0.007959192619114699
0.008612404856618058
0.008906274812109963
0.008780077814309097
0.008217111379217837
0.007252469280977003
0.005973833333873625
0.004514143633344803
0.0030363685666241627
0.001712378161410506
0.0006990196664384521
0.00011561993350487127
2.671768462374514e-05
0.000432971582010536
0.0012716609400014907
0.002426478703748913
0.0037448323107751587
0.005059741884786603
0.0062130332687021375
0.007075959633735752
0.0075644481236599075
0.007646615022762599
0.007341831274376336
0.006712236288827226
0.005848848280770735
0.0048629043721424
0.003827603709889387
0.0026181071185290873
0.0012397213287342979
0.00019694855582789146
7.889485067706797e-05
0.0008269765950239004
0.0017350170666457388
0.0020130265473084427
0.001455994196090566
0.0007233376389292311
0.00034833752970651584
6.43592462938141e-06
0.0001324384116377331
0.0006708232094811813
0.0015191366998531445
0.001940339715797903
0.0015420273932293634
0.0006440588143776534
2.1952830717858552e-05
0.00034869312585793027
0.0015966890896842384
0.003167859795260369
0.004503706214254052
0.0055083208799865824
0.006322154029030642
0.006913716839144984
0.007199270858329201
0.00712328215490738
0.006670176538920922
0.005871182041110452
0.004804457793676241
0.0035878172428767457
0.002364493462522237
0.0012839477265282025
0.0004805863750933364
5.407992052423603e-05
5.451819504316847e-05
0.00047491653845324394
0.0012522776548377365
0.0022769831938532774
0.0034090008447995607
0.004498296091273958
0.005406385427731581
0.006025331459233125
0.00629138368668295
0.0061909761960538745
0.005758336563885492
0.005065749527688457
0.004208744816304959
0.0032332519607268582
0.002043357633232913
0.0007949825488415579
4.6088755292550586e-05
0.00024736084595794927
0.0011963058983438047
0.0021104995549785116
0.0022874115095379123
0.0015934616430687688
0.0006073868200972476
8.618968009658964e-05
2.2813134954496008e-07
0.00028700198020386875
7.668461112658896e-05
5.564568066285113e-05
0.0007213377102149221
0.0017807154630678078
0.002473635702671401
0.0023149842155150316
0.0014043751466443404
0.00040428089684455644
2.929690538164667e-07
0.0002669995481008642
0.0007377261954881154
0.001100302187548196
0.0014134377524675401
0.0016822467678124988
0.0018671543039371589
0.0019370835618312205
0.0018757547383448172
0.001685913807998674
0.0013904886266057667
0.0010302311410924619
0.0006579984695981119
0.0003305667808129019
9.935616905792315e-05
1.7657821399430628e-06
5.4661688487883266e-05
0.0002512083770133902
0.0005616149854969617
0.0009377375585454807
0.0013208061447661874
0.0016510448844239724
0.0018775965278678855
0.001966916415455847
0.0019081028029862268
0.0017140518701754997
0.0014181914047236678
0.001067547060267123
0.0007136910113608511
0.0003736646186534212
5.8885862332941635e-05
8.413953154719388e-05
0.0007689605159137084
0.0018666928970898276
0.002645276856016398
0.0025546814839458695
0.0016559161021286945
0.0005515828183498867
8.67350175602763e-06
0.00018321015285550625
0.00045617267845489315
0.0014174262406921711
0.0010076287708252864
0.00028853846762095695
1.8219128207269077e-05
0.000670363011540581
0.0018983299007191742
0.002995107825116854
0.0033421002299060627
0.002797553512946378
0.001823304362062886
0.0010162717036639078
0.0006173338322666722
0.0004591090620870984
0.00034941074849512344
0.0002556439176024778
0.00018044793473940684
0.00012376406293922626
8.356520493817586e-05
5.6745377141471264e-05
3.995643585687756e-05
3.0225503855289904e-05
2.526488458533981e-05
2.347321552595563e-05
2.3715039697031645e-05
2.501469746371368e-05
2.631488517289932e-05
2.6421218509435735e-05
2.4198506918501903e-05
1.901840416685567e-05
1.138061693867159e-05
3.5531740045091387e-06
2.227869248318901e-08
7.512405038477273e-06
3.4388650783530286e-05
8.938390394417958e-05
0.00017979487620028842
0.0003095038221908098
0.00047731370315272397
0.0007117292442544715
0.0011876035602473806
0.0020202293693838995
0.00289979546082408
0.0032398812408313575
0.002697217549997548
0.0015352107128104766
0.000414544120383077
3.563461227654203e-06
0.0005396432280540421
0.0014199636968406366
0.0018638185056292454
0.0030902222006389877
0.0028025834407027156
0.0018042738953927538
0.000581118156722073
3.0516076241213487e-06
0.0004374869648698033
0.0016901329873719444
0.0031910278583217023
0.004272688336700035
0.00462858926553005
0.00451013496744074
0.004394620537514132
0.00440376091915944
0.004350276655903775
0.004178647620984155
0.0038956433016791455
0.0035150136771633705
0.0030569850269916445
0.002547229299034764
0.00201538233980351
0.001493124783394125
0.0010120157154791605
0.0006011928265744826
0.0002851547905602553
8.184936716912672e-05
1.2954829088223146e-06
4.493511891501293e-05
0.00020582243204875404
0.00046961304774374143
0.0008161836678715353
0.0012215703132935898
0.001659955926262148
0.002105376740454358
0.0025330938235920745
0.002920608014779214
0.0032483926455400603
0.0035005650451319565
0.0036654942444766586
0.003777379632161324
0.003952277305236973
0.004030852738536522
0.0035978493126702393
0.002510806642775961
0.0011540512939997136
0.0001805751194868256
8.359471557979698e-05
0.0009646871480769746
0.002376970321292035
0.00343337131379572
0.003708471824186109
0.004468931595437219
0.004585571414105866
0.004004686275050388
0.0026583709102033517
0.0011471606421228754
0.00015693165140980643
0.00010611922960153094
0.0010481070418092379
0.0026205207010183986
0.004224896281817499
0.0054573986582417714
0.006292975939725808
0.006878656585719266
0.007250492845303017
0.007372370930686293
0.007217879355882913
0.006783584036606396
0.006092010253775147
0.005191806800312942
0.004154690941966662
0.003069281874530557
0.0020323338138733644
0.0011384100336544445
0.000469160991357256
8.377009564977341e-05
1.1923880530803345e-05
0.00025042739032846763
0.0007640666442745076
0.0014905942181698793
0.00234899509494215
0.0032496873510247585
0.004105023855954919
0.00483853993843209
0.005391847421061374
0.005728622041479254
0.0058355426903683155
0.005720700893486879
0.00540997240737758
0.00493076000524267
0.004224056637833005
0.0031498699877743497
0.0017838135658799392
0.0005519381661625227
3.249995720946006e-06
0.000413647612134409
0.0016620571221022079
0.003297104400582986
0.004644215719854918
0.0051731150323457
0.005020588292909005
0.004675193895728807
0.005223716977571346
0.005499726886912341
0.005035540235849095
0.0038036238094479964
0.0022126296735220535
0.0007974325676306529
4.6464026135897064e-05
0.00022140891988233557
0.0011639845421436226
0.0023956551337496078
0.003451700590395253
0.004236532146663344
0.004856931098322174
0.005287554634750372
0.005469869593045944
0.005369558387581387
0.004983879225472577
0.0043449904557250766
0.0035182958894100285
0.0025957474614209854
0.0016847577096231387
0.0008941827807201873
0.00031935921219999587
2.8523760582755988e-05
5.286431499126647e-05
0.00038194690125804566
0.0009654281195058172
0.0017208358092881473
0.0025460802332006767
0.0033344238935960817
0.0039894129222355695
0.004437213637214975
0.004634671283861756
0.004572220275938273
0.004271762133264794
0.0037804560206545716
0.003161849415405055
0.0024481003693321594
0.001565340210258621
0.0006220419441977648
3.860317583023709e-05
0.00021537196394180792
0.0012299191240830222
0.0027813168779817934
0.004386166364458126
0.005540817009937623
0.005891335333880928
0.00553645633746459
0.0049677448844774414
0.003437104187452687
0.004155758636506082
0.0051187515575477315
0.005857281645190912
0.005897699694151853
0.005149577208571201
0.003800983285525919
0.0022217622413756447
0.000885417096428234
0.0001452316894682256
1.0574882886331752e-05
0.0002022797922480125
0.0004754334838923769
0.0007822319002821021
0.001085036814481316
0.0013308607934138291
0.0014755930177067955
0.0014922581509126222
0.0013763972637217269
0.0011474338900852549
0.0008456936453813209
0.0005255196632074931
0.0002456518856043785
5.8546790016157485e-05
6.047328350816335e-07
8.516980317347102e-05
0.00029974293215530583
0.0006080588339049874
0.0009567086613714287
0.0012850032863377656
0.0015361109577358037
0.0016672535495405845
0.0016570159755921077
0.001508553007451765
0.001248325568391711
0.0009209174354290946
0.0005811044042958068
0.0002847346605406959
7.195742424325866e-05
8.035614621474795e-06
0.00032098066654060576
0.0012211157956391117
0.002638768865877655
0.004205397486098074
0.005473490282960661
0.00611013673379143
0.005961070750922512
0.005147907764665878
0.0041640326698520694
0.003460961478254438
0.0014414073011128211
0.0019623764837407983
0.0029604818254797636
0.004267538812697319
0.005425819888852646
0.006087682741906003
0.006080761485280234
0.0053971086286449645
0.004227629960725067
0.002935954398562577
0.0018685310390460404
0.0011748789421055954
0.0007433524326070876
0.00043763497773812967
0.00022853525098863033
0.00010149680128642834
3.551189417736857e-05
8.300625812577856e-06
7.867192506274831e-07
1.6426843420416094e-09
3.8209310223965476e-10
8.680615410848202e-07
6.30855547195197e-06
2.0578955495009166e-05
4.5644840920750824e-05
7.935459089523063e-05
0.00011518238526081747
0.00014367096379013154
0.000155257599502025
0.00014374024017737978
0.00010945588893900476
6.126247401321206e-05
1.674440733583125e-05
4.593999307314537e-07
4.052199101636261e-05
0.00016413298229448958
0.0003928456471386747
0.0007383461364361475
0.0012227461904767848
0.001962555815893909
0.0030399512130757666
0.004287920122956978
0.005370054838854138
0.005957960348312143
0.005894236262400024
0.005201344296414076
0.004051695457689547
0.0027837215654158173
0.001835059347774961
0.0013517557298716857
7.499836603796985e-05
0.0001964213591624181
0.0006030348481313534
0.001445668957578996
0.002607301484968789
0.0038470181818943796
0.00492460645061108
0.0056301945769852944
0.0058238251588252745
0.0055269477819455326
0.004934574844712057
0.0042910609237843435
0.0036965065647035504
0.0031296988373291945
0.002598586211357612
0.0021195937809612908
0.001701062576311813
0.0013445393786663095
0.0010466246267042244
0.0008009033827367408
0.0005996594057778576
0.0004352274691842964
0.0003010061853449538
0.00019217626232772436
0.00010624812289254445
4.344690406960691e-05
6.920409863814495e-06
2.6901366236280417e-06
3.921731001943073e-05
0.00012652361088224962
0.0002748801079803719
0.0004932216739531529
0.00078751004219657
0.0011593521785085974
0.0016050635909818853
0.0021153034640649126
0.0026752232204847294
0.003265037345636145
0.0038742960351292434
0.004511098755432551
0.00506821770365029
0.005321107084722604
0.0051054329684006175
0.004422635786314723
0.0034146533195767493
0.002276448819883726
0.0012266497597897819
0.00048276594036872794
0.00014030753560810813
4.6427446945616044e-05
0.0006513384592541331
0.0004990925507517901
0.00018894911929118755
1.453591246949857e-06
0.00015699486742607263
0.0006749079688134738
0.0014757128022439418
0.0024246626113035063
0.003331737276454944
0.004004081011987189
0.004341898200005276
0.004371550137062425
0.00422106777880636
0.0039850461620860355
0.0036870692342250385
0.0033386534885784863
0.002951579273868842
0.0025379559672269727
0.0021105598470816875
0.0016832253297254529
0.0012710411294839922
0.0008902254593924962
0.0005576587085128253
0.0002900642734477542
0.0001029257274001688
9.186439263243461e-06
1.7824208143100087e-05
0.00013242723564947745
0.00034997246023283854
0.000660088166044892
0.0010451234158379875
0.001481232420124021
0.0019404894001467652
0.0023937719369676665
0.002813932835282323
0.003178536761384189
0.0034717234530942513
0.003684780993117372
0.0038039415864740936
0.0037513489312272653
0.0034165101886743515
0.0027870051239450365
0.0019670649395496266
0.0011386441351088127
0.00047083956830305644
7.693410647880745e-05
1.9147759250709658e-05
0.0002668943440707502
0.0005977059597173553
0.0007459973119477454
0.0036055351651905028
0.003568891360209387
0.0029930526533518504
0.0020909160406026653
0.0012025589480629938
0.0005120078472814489
0.00010244205714775058
5.432791779888853e-06
0.00019402123205691603
0.0005629797443421807
0.0009634486500183306
0.0012738611905842832
0.0014884841281875279
0.0016528280159326032
0.0017648706986739034
0.0018105366972757098
0.0017802237007461996
0.0016708132656748894
0.0014872414597698798
0.0012432067660897406
0.0009606633505925959
0.0006679866838195907
0.0003969507926066643
0.00017890726459737495
4.0679042332684634e-05
7.533139780426994e-07
6.630403642246167e-05
0.00023151840565903135
0.0004775927187631711
0.0007746244651615504
0.0010853487737277913
0.001370378649759516
0.0015941153239668927
0.0017302485094590838
0.0017656748643778617
0.0017019012949605712
0.0015536388285489727
0.0013449869501244742
0.0010917957309114338
0.0007691093691571345
0.0003981347324329264
9.823317196318481e-05
2.9013977167801657e-06
0.00019495081965863683
0.0006814092058535262
0.00141905342734583
0.002321848024141059
0.0032109020286323507
0.00375824212249922
0.003766660822447524
0.008192100631142321
0.008685809070030082
0.008520415086735532
0.00776269925477835
0.006660672990785179
0.005389969908200059
0.004074507576646348
0.0028301926949675866
0.0017752017821099544
0.0009907526875325913
0.00048506641123834804
0.00020356567822362711
5.9794577977738393e-05
3.0966543736736096e-06
1.3006083393842224e-05
6.655742753609808e-05
0.00013735632619394365
0.00020044635386568885
0.00023688095975548035
0.00023704169882392492
0.00020198105337316898
0.00014249517342757322
7.614039376324299e-05
2.2854673570280405e-05
1.1771461198093747e-07
1.863423365220386e-05
7.941483059110204e-05
0.00017287943356094322
0.00028029508351263936
0.0003774685543457305
0.00044017985243063055
0.00045037327835642987
0.00040173745679104785
0.0003031943175762236
0.00017906446326703912
6.54079802916086e-05
3.046430939621564e-06
2.8799362513004177e-05
0.00017146171862227213
0.00048108074768979603
0.0010392683914368316
0.0018910835179109591
0.0030132729877724073
0.004309509500174343
0.005651343145213262
0.006920402106854773
0.007998555241642452
0.00872199159115257
0.008855881303060458
0.008340599944149563
0.01287232762399767
0.014094670023449397
0.014771014599391487
0.014850434514857767
0.01440696112001809
0.013509760385604206
0.012230228258407584
0.010667799334509405
0.008962660289825942
0.007271778318109295
0.0057255094309787416
0.0043993988161199005
0.0032778778367778894
0.002333323966251171
0.00157563121891866
0.0010050695473532488
0.0006036635579116626
0.00034143639439176255
0.00018349315967535737
9.641690149031837e-05
5.285759048126127e-05
3.366066198217846e-05
2.7596489855466508e-05
2.9284883440900864e-05
3.627377501478626e-05
4.63095859400414e-05
5.568683530211192e-05
5.9255802700172994e-05
5.224895656521109e-05
3.363735145246036e-05
1.0253610075562381e-05
5.10933323398517e-07
3.632787642635803e-05
0.00016196132562179284
0.00042899065067223926
0.0008876312684358615
0.0015757191419765518
0.0025077267768224983
0.0036771264574956505
0.005096683576885713
0.006762488622076825
0.00858387113388676
0.010415607228915139
0.012088633896401118
0.013454853099869088
0.014412973537646845
0.01489639963745012
0.014845159520993977
0.014192959589770772
0.01299163710532533
0.016106883825508747
0.017945553687392386
0.019410768165732385
0.020393752133454818
0.020833304369061292
0.020698443737158314
0.019995228254852025
0.018773826901322503
0.017129106852521263
0.015189389899650529
0.013096881935144111
0.010987273497656316
0.008961774712292488
0.007096418847382681
0.0054548288016922335
0.004073385498422912
0.0029594843514405256
0.0020971567982823623
0.0014546380702848746
0.0009922049748898223
0.0006689387180897681
0.0004475514370571679
0.00029706135135384575
0.00019364155603601778
0.00012032264403741895
6.634140428991325e-05
2.6831448231388513e-05
3.2840365956568276e-06
4.858951469067966e-06
5.021415827521949e-05
0.0001691551905650767
0.00040311272084616006
0.0008033875769073031
0.001426315415660651
0.002325137731147377
0.003539258025024622
0.005082594616758635
0.006933550817913543
0.009032442782905452
0.011292729252167054
0.013594087660483884
0.015779403284790956
0.017684378587048615
0.019161244575850982
0.020100275840375492
0.020442222141354632
0.020177920168807012
0.019339424464890193
0.017989940230342564
0.016238699679703032
)
;

boundaryField
{
    "(inlet|outlet)"
    {
        type            zeroGradient;
    }
        "(front|back)"
        {
            type            empty;
        }
    "(top|hills)"
    {
     	type            zeroGradient;
    }
}

