/*--------------------------------*- C++ -*----------------------------------*\
| =========                 |                                                 |
| \\      /  F ield         | OpenFOAM: The Open Source CFD Toolbox           |
|  \\    /   O peration     | Version:  v1806                                 |
|   \\  /    A nd           | Web:      www.OpenFOAM.com                      |
|    \\/     M anipulation  |                                                 |
\*---------------------------------------------------------------------------*/
FoamFile
{
version     2.0;
format      ascii;
class       volScalarField;
location    "0";
object      nutCoeffs13;
}
// * * * * * * * * * * * * * * * * * * * * * * * * * * * * * * * * * * * * * //
dimensions      [0 0 0 0 0 0 0];

internalField   nonuniform List<scalar> 
1000
(
0.0023637604580702626
-0.0030599901463900553
-0.013842837797642539
-0.02195112709939819
-0.01813213605254886
-0.00039970339788978807
0.028429181178414694
0.06278747650988022
0.0951272908872298
0.11951271170201211
0.1348759067295373
0.143217325339125
0.14714442085026197
0.14832212622462818
0.1469575629466584
0.142934921493528
0.1362319831026189
0.12692256534790602
0.11517055914932876
0.10121665356588921
0.085361296922674
0.0679464086046117
0.049340524623817814
0.029926563541202086
0.01009512651079275
-0.009758777461514136
-0.029240119047357842
-0.04795565469072394
-0.06552191670709914
-0.08157501122503599
-0.09578295056539776
-0.1078610710683142
-0.11758471593697467
-0.12480174803949237
-0.12944067835518724
-0.131513901566287
-0.13111685209005935
-0.12842212472172054
-0.12318209645179268
-0.11344841326365787
-0.09693917820571192
-0.07292597410858108
-0.043572193630237996
-0.014858500012400836
0.0066144959327451985
0.01660001229290649
0.013790074737890458
0.0016118286179979252
-0.010403953031492465
-0.015573835180482722
0.012561044782429512
0.008674607353394967
-0.0030738656794764238
-0.01817047802208727
-0.02675817078826151
-0.023201623372228846
-0.006383343013211892
0.02138642558777553
0.05390723740701451
0.08317492589426614
0.10375081102427243
0.11383201566106395
0.11656544011553234
0.11637347774815997
0.11420277095086168
0.11001744167677859
0.1038536070168052
0.09581821649181094
0.08608042815909457
0.07485769860651637
0.062399287714846076
0.04897049916574304
0.034841481568833994
0.020279681360471275
0.00554826866804552
-0.009092485375077161
-0.023384270013927268
-0.03706912830275505
-0.04989352388606887
-0.06161434755151239
-0.07200774335263797
-0.08088069242855597
-0.0880798850417021
-0.09350070217150419
-0.09709251207168318
-0.09886067788192889
-0.09886587151059334
-0.09722041321277841
-0.09307503540465394
-0.08230215484190259
-0.06241072320862565
-0.035997527206318464
-0.008738457071320772
0.012135500378302857
0.02171782362360521
0.01892421573597051
0.005979108680976559
-0.0108146142996478
-0.022275541108194397
-0.02542963304417482
0.02166746830231685
0.020613564787880505
0.011428990395359828
-0.005621739083097853
-0.02270733130179128
-0.03261186053219864
-0.031160112041061283
-0.017085104307902353
0.006580608503431669
0.03243893796204061
0.05249612380840609
0.06154003892618636
0.062198692684326456
0.060412683252683945
0.05762031795099185
0.053885744720037154
0.049309725546295535
0.044024103914660835
0.03818141548991827
0.03194125895869075
0.02545610327182359
0.018859768458818912
0.01226121856152755
0.0057435499926395345
-0.0006311943012549771
-0.006813826636494721
-0.012759842219182558
-0.01842184275721972
-0.023745774219100124
-0.02867074831452187
-0.03313130335799624
-0.03706205700794279
-0.04040242130508171
-0.04310106342808851
-0.04511957241808617
-0.046435012029832655
-0.04704180241192448
-0.04695292171528195
-0.04493908540756021
-0.03585333968531288
-0.017896997428237492
0.0035706232177368205
0.02114074624396942
0.028676210138002457
0.0244028367697894
0.01047461700806475
-0.008350030624638042
-0.024911873180430474
-0.03269053873338232
-0.03284063925947234
0.02679192215889486
0.029206966302836368
0.025409713955465416
0.011757056594250246
-0.007753933711262254
-0.02656057384762006
-0.0391363940807907
-0.041562571360763544
-0.0331741590373199
-0.01846440466429543
-0.005204122053289179
-0.00021628794738510877
-0.002207847225712679
-0.005553620281791965
-0.008746139288312709
-0.011619470438691442
-0.014013691110774017
-0.015784064333962084
-0.016812435682260433
-0.01701944042900466
-0.01637485963725515
-0.014903906264307591
-0.01268758553896465
-0.009856545126116768
-0.006579508685219905
-0.0030482958047819563
0.0005384645405887619
0.003989752363095805
0.007134497773239141
0.009830031085205663
0.011967612714119565
0.013475337763788836
0.014318934286070034
0.014501056742401385
0.014058692714014645
0.01305897071503679
0.011593052648825108
0.009768601349098046
0.008841978876931451
0.01340910412335056
0.023964355293582276
0.034094298171605614
0.03712161421800064
0.029884810766423915
0.013993781097275677
-0.006180007939814489
-0.02502740575704674
-0.03657337101558198
-0.03837986147483982
-0.03516589384936282
0.025719056957746442
0.031434156775011435
0.034474518659287856
0.02849753540731383
0.013055159159193305
-0.007659002358787958
-0.02861889718824003
-0.04492407550959624
-0.05303430646976829
-0.05349288480669915
-0.051270544132954655
-0.05233664343929598
-0.05697149353257321
-0.061575576266216715
-0.06500880772916506
-0.06702376263064484
-0.06741727700769798
-0.0660424555715095
-0.06282029789768172
-0.05774960714295598
-0.05091337300760019
-0.042479772501651185
-0.03269713587933006
-0.02188180303248341
-0.010401204987274369
0.001346511796911213
0.012955035087356506
0.024029932344774338
0.034208323199287904
0.043174522573305854
0.050672709645202596
0.05651692207700542
0.06059675111345176
0.0628800165131048
0.06341125159071896
0.0623055118320543
0.05973829493062358
0.05593212633930955
0.05182058799358818
0.05008318430744216
0.04985278019223757
0.04584786149811247
0.034274290545406955
0.015639107193848176
-0.006021293680658196
-0.025759914409534495
-0.03883410127418185
-0.04189074638416846
-0.03681985714411788
-0.030597087551856098
0.017453629270716742
0.025535540701061586
0.03516951471180478
0.038984468986881175
0.03267824692248742
0.017301512293916792
-0.0039923113817366945
-0.027027371359209018
-0.04706858309151356
-0.06119567379905271
-0.0702610915095582
-0.07734581512686667
-0.08389622464223706
-0.08921430725570142
-0.09280304335859928
-0.09437306189856279
-0.09370206942383448
-0.09064828392869793
-0.08516143071236534
-0.07729057726446106
-0.06718737703873252
-0.05510325368455263
-0.041380891259257646
-0.026438980056697575
-0.010752670993984298
0.005168915226983814
0.020807969194770928
0.03566035529830698
0.049259300682702685
0.0611950350173538
0.07113186265511823
0.07882279663081065
0.08411872344333188
0.08697383585688231
0.08744492565473767
0.08568448677780789
0.08192823865327037
0.07647776330915239
0.0697345278333653
0.06186763055014623
0.0511674419775807
0.035209676634901065
0.014033836105209845
-0.008882277336194134
-0.028757200750836306
-0.04165353606412952
-0.04486676439535665
-0.03815749200472387
-0.026894937050107242
-0.01866380265933274
0.002536912420518574
0.01150818889477111
0.025900255008033824
0.03897610421595704
0.0440492873472194
0.039268656626237713
0.025378313860019413
0.004685384799337036
-0.018673326587888145
-0.03995859218846728
-0.05628374361447867
-0.06710965812946786
-0.07421806303041452
-0.07951197412359123
-0.08314876330496433
-0.08484851712510479
-0.08439953883112976
-0.08167114875475256
-0.07662363891848553
-0.06931419619151795
-0.059898390987377495
-0.04862605744374344
-0.035832216321743236
-0.021922280335159854
-0.0073539051206985276
0.007383643751100703
0.021792579894387078
0.03538753530323547
0.04771774506253703
0.05838664954250723
0.06706933793674988
0.07352812677969962
0.07762300856854959
0.07931824308873053
0.0786827566627776
0.07588370420508933
0.07117407904348645
0.0648748396245028
0.05686169150427076
0.04520351350540036
0.028195434893641166
0.006788869956962689
-0.015727709494962997
-0.03458765528832223
-0.045940173649851514
-0.04782689107121549
-0.03991818687100867
-0.024645219010940998
-0.00928383972807532
-0.0004776309763247774
-0.016941132789865875
-0.008756974998627605
0.007459603251034945
0.02685773092081537
0.04219852441813348
0.04973565826116511
0.0481142828639795
0.03747499361766911
0.02010673759824195
0.0005412661580188315
-0.016340120810473348
-0.02716111550522392
-0.033170803239418185
-0.03759571454923473
-0.04101520166733913
-0.04321058092570798
-0.044012311480212216
-0.04330998428012665
-0.04105988075967432
-0.03728925618198581
-0.032097213914800485
-0.025651480846105395
-0.018181495560401568
-0.009967756470636868
-0.0013288273552057328
0.00739335434616002
0.01584955447365604
0.02369841736270508
0.03062250085387346
0.03634289675804871
0.04063305162578824
0.0433312419377507
0.04434993140305683
0.04368183607617961
0.04140110952831457
0.03765888214915132
0.03267333867646713
0.026714996001512916
0.019330406582724047
0.007673712421829582
-0.009172760301413847
-0.027730137322301673
-0.04320524154648169
-0.051432255015859435
-0.05054385703471659
-0.040692949046839726
-0.02348580035574446
-0.0029450809421860766
0.013535514502799892
0.02135819932613452
-0.03764872163423575
-0.031743168884427506
-0.016986420094327024
0.004268387073271246
0.0258913694411976
0.04356982787112171
0.05472757828660842
0.05781090061490188
0.0528919040397146
0.0427001681737073
0.031879016667141845
0.024846203578548418
0.021426830425592545
0.01869253189097516
0.01598886855291761
0.013433091034434585
0.011124929794799888
0.009141400600464672
0.007532952750513656
0.00632111033418003
0.005497772626736204
0.005026418663953472
0.0048449164622267355
0.0048698090000565365
0.0050014695304194026
0.005129803619330795
0.005140157440140888
0.004919197792171189
0.004361009535286029
0.003373516998426359
0.0018849864732960653
-0.00014926048533750992
-0.002740876691585609
-0.00586418372695896
-0.009454306105906429
-0.013408761173213893
-0.017592720715989604
-0.021847510227774786
-0.02667825414554842
-0.034461624457465444
-0.0449469617369617
-0.0538497489392855
-0.05691995468051039
-0.05193474318794258
-0.03918176505481187
-0.02036035658781734
0.00188771322706978
0.02323022229885117
0.037682405666844526
0.0431719643475861
-0.055589767049691687
-0.0529394318131836
-0.04247674534839921
-0.024106392445201602
-0.001746885120470533
0.02091618906182011
0.04111122702342931
0.056489183551558804
0.06536580403161912
0.06803373623085866
0.067157538426008
0.0662919341814231
0.06636083874665419
0.06595662708101267
0.06464245989273734
0.062415088734048475
0.059287550777236284
0.05529000838299488
0.05047008320812206
0.04489300992140659
0.03864097285775974
0.031812194446142195
0.024519233808879156
0.016886526894546887
0.009047064008236414
0.0011381928258525945
-0.006703366237571459
-0.014346512888111661
-0.02167055716274368
-0.028568928364073008
-0.034950970133797284
-0.040742556697661324
-0.045884384494666135
-0.050329850224216585
-0.054042649960741325
-0.05699467208029238
-0.05916557314124453
-0.06054332535033617
-0.06146039075828695
-0.06286714010703026
-0.06348899698795471
-0.059982074928016944
-0.050107949895959236
-0.0339713304714389
-0.01343782420955214
0.009143014578343238
0.031059413195953567
0.048754182603055043
0.05859497686487913
0.06089722345219122
-0.06685006802866561
-0.06771684734322668
-0.06328259061582725
-0.05155939206588215
-0.03386975999505865
-0.012527236383568662
0.010301418814975484
0.032374481336528586
0.05119102168367416
0.06499920216293041
0.07387420834257225
0.07932827957119583
0.08293766686927759
0.08514982586771987
0.08586251178882605
0.0849581035327585
0.08236251596816598
0.07805133089047966
0.07205419349568033
0.06445689212153081
0.05540109993971741
0.04508141317520297
0.03374033244730177
0.02166012445387274
0.00915260048564196
-0.003453097237380283
-0.01582489779835774
-0.027641755448496893
-0.03860821438722437
-0.04846643266160766
-0.05700602907609649
-0.06407046008852223
-0.06955961427748208
-0.07342920005734349
-0.0756876610913513
-0.0763907238502707
-0.07563531512122415
-0.07355251462307445
-0.07021937058421038
-0.06499274296283397
-0.05612370254869461
-0.042235217128362666
-0.023493364300638652
-0.001802774450935559
0.02033832864653359
0.04076833479677834
0.057420417976386987
0.0681484828874049
0.07192437022557584
0.07085610977826122
-0.06837538954718142
-0.07227528607740924
-0.07416014352003603
-0.07096154054027502
-0.061673526001421355
-0.04703859769935806
-0.028238848553555664
-0.006816452606443989
0.01487981585512185
0.03411721767881464
0.04894543016206526
0.05875117522565189
0.06508864837022922
0.06969168600573654
0.07271557353655661
0.0739585667319611
0.07327727060679448
0.07059659499913984
0.06591654159408757
0.0593152247691099
0.05094847849956841
0.041045800145972776
0.029902889170115105
0.01787062428120506
0.005340764044849387
-0.007270785032667824
-0.019543461854493578
-0.03107133919717361
-0.04148295805855878
-0.05045869829078706
-0.0577444706755208
-0.06316179954874283
-0.06661241353693
-0.06807842010403704
-0.06761819485861977
-0.06535871887716889
-0.06148541307216347
-0.05623032469588856
-0.04947828179446169
-0.03956438057468638
-0.024940768717057717
-0.006213145405528273
0.014675556682518312
0.0350702027950085
0.052738191834587896
0.06622813876637426
0.07443666441974427
0.07675503458328273
0.07440736749452026
0.07048223098396816
-0.05862682139987368
-0.06446517382669562
-0.07154545099129456
-0.0765328795041119
-0.07679648230323999
-0.07176055468411041
-0.06165211501259238
-0.04713557299297044
-0.029755959007033095
-0.01205121112039058
0.003251904501416324
0.014222510054417697
0.021804437252366245
0.027968408969444473
0.032939897001680436
0.03648096480925126
0.03841344839645089
0.03862975732401929
0.03709982835164776
0.03387379355911078
0.029080812323271178
0.02292421565086782
0.015673285730962046
0.0076515874180563
-0.0007776457002270594
-0.00922874873281698
-0.017313085575809583
-0.02465884899797611
-0.03093070741789506
-0.03584694249636593
-0.03919325143102832
-0.04083201623163598
-0.040706461103762234
-0.0388400953584278
-0.03533165108499334
-0.03034662148294427
-0.024106107199127088
-0.016874082509597252
-0.008482772202721152
0.00283471596839521
0.017915933314806846
0.03494446731085068
0.05136894845991744
0.0648490361231227
0.07398304050902924
0.07816736361034207
0.07720797077324666
0.07174892169688599
0.06452931635971412
0.05882993692206747
-0.037965870214085984
-0.04429871875958489
-0.054410309918982845
-0.06532640211045851
-0.0736601648712019
-0.0780236037485196
-0.07797923752692272
-0.07346501635911452
-0.06502022731985076
-0.05418444794000006
-0.04322650852250318
-0.03427650714564708
-0.027264490323625847
-0.020919726999608042
-0.015117382411933302
-0.010074562089065129
-0.005959185697506713
-0.0028810806674888253
-0.000886971955941947
4.053004246286462e-05
-1.954720190307694e-05
-0.0009316982027914512
-0.0025116837921904042
-0.004536403365553945
-0.006756096574261711
-0.008908119380387233
-0.010732305682415939
-0.011986282317304708
-0.012460240748156715
-0.011989171788634099
-0.010462116847894824
-0.00782703481614922
-0.004091993076219857
0.0006777904770144338
0.006365688573623643
0.012811439509067261
0.019820334183324826
0.027172525396733874
0.034967787897960956
0.044300742836818306
0.05513575258465025
0.06548221226376655
0.07328065801324479
0.07718782513008215
0.07677392957508443
0.07212034592550201
0.06365292968661809
0.05276098525819829
0.04283759269350883
0.036766230835804825
-0.008660159700488775
-0.014015040462389614
-0.024556767868173394
-0.03802195362654313
-0.051061741891251504
-0.06202433540066656
-0.07017554025877593
-0.0750346225217752
-0.07631399058380628
-0.0743434447812686
-0.07024652905811117
-0.0655061899654097
-0.060798902660356875
-0.05594371132959623
-0.05097632991259386
-0.046039046264679404
-0.041243939873777974
-0.03666796120138546
-0.03235157842678197
-0.0283002364431243
-0.024487944090467405
-0.020862106058217044
-0.017349529830659786
-0.013862765320372568
-0.010307673010555993
-0.006591426558007523
-0.002630667189861632
0.0016401635966049367
0.006262372555144793
0.011248271461973595
0.01657950867729113
0.022208594596532957
0.028062609326229268
0.034049261056718946
0.04006324488832482
0.04599242833407378
0.05172256007280314
0.05714050529734704
0.06224384335120417
0.067164713618332
0.07119141594075995
0.07294591890381945
0.07145231254760491
0.06650290058572425
0.05843503503530009
0.04771214541271149
0.0350235600673287
0.021971935289562636
0.011845148188524621
0.006813768923702655
0.025521333414501152
0.022340379377973646
0.01374587644681806
0.0012056497198398284
-0.012529759272470985
-0.025978990912148104
-0.03841500751326155
-0.04924086322662821
-0.057721203005957386
-0.0632778082109928
-0.06589308157921646
-0.06611769912105551
-0.06496974510344303
-0.0631272220368205
-0.06072124203460465
-0.057781082445541684
-0.05432843890513367
-0.05037812985043185
-0.045940829847551594
-0.04102712919185856
-0.03565166376880597
-0.029836646249075918
-0.023614798506716616
-0.017031273394780385
-0.010145231756848573
-0.0030309139320085386
0.00422187258726505
0.01150770331775535
0.018707550888153117
0.02569218102935
0.03232836859227492
0.038486782408042645
0.044050986369737116
0.04892618866177567
0.053046515769485963
0.05637851329526337
0.058921332750492425
0.06070239693057739
0.061676102231529625
0.06124825655663404
0.05845092119611419
0.05279209338475825
0.04435160582830825
0.033743801432393666
0.02169883794821871
0.00877120895195226
-0.004375815266977076
-0.016336901299535054
-0.024448025681378757
-0.027312951359158264
0.06004610865984991
0.05974019886315567
0.054708798683135516
0.04572653541000745
0.034677931715472794
0.022627590399365304
0.010121366367627968
-0.0023308349962811296
-0.013929150442755509
-0.023727194194471894
-0.031039469229004715
-0.03569119205888595
-0.038580877752942944
-0.04065498758987147
-0.042010364181638594
-0.042550401846230664
-0.04219269724426491
-0.04087558275639491
-0.03856476967090403
-0.03525913734182588
-0.03099456969523203
-0.025845438356112103
-0.019923623982766394
-0.013375622026559173
-0.006378012412396564
0.0008679366209826034
0.008142729052502094
0.01521572889016597
0.021853894819074494
0.027832076192076477
0.032944631940997476
0.03701862571408501
0.039926373789349975
0.04159625595482223
0.042019934131050964
0.041254106401188366
0.03941622544776418
0.03667406372526058
0.03304233240725348
0.02773282115395284
0.019953313820840046
0.00991126490228088
-0.0017033489709334859
-0.013962478994026698
-0.026103815925138725
-0.0376703255540197
-0.048185558252873434
-0.056664821791234374
-0.06130450328074782
-0.061373127852892784
0.09051022390394535
0.09319768811526433
0.09230609452650204
0.08810618170581648
0.08161294622046908
0.07341641443301396
0.06383186960011705
0.05319955540197292
0.042133143510898335
0.03147622416257374
0.022024223283429272
0.014267644452523588
0.007732695388914424
0.0017597313356514425
-0.0036063947917334594
-0.008158273563450669
-0.011719911526711438
-0.014157907820920745
-0.015390937585328593
-0.015396158573615851
-0.01421200384791564
-0.011937134221728983
-0.008725846306418822
-0.004780656186161101
-0.0003430956309557693
0.004316738775071276
0.008911499906923751
0.013148362390843325
0.01674201551524306
0.01942854998052429
0.020980463589507038
0.02122199986703491
0.02004338935387545
0.017412475917462845
0.01338149704879985
0.00808752003345949
0.0017454028015393935
-0.0053665037513267585
-0.013094339182344107
-0.02193355301107862
-0.03223768588836413
-0.043486590092935075
-0.05489328727424153
-0.06564685445757734
-0.07517541582999898
-0.08318895423585257
-0.08943464229057134
-0.09339160342960479
-0.0941056921926642
-0.09132688511139292
0.11345628067232624
0.11872097549906417
0.12153606295824909
0.12186235889255453
0.12002900116229448
0.11623149480929945
0.11059036241195515
0.10328503925791675
0.09467132770710435
0.08527472262112198
0.07566709609188621
0.06632796405830575
0.05725275396675595
0.04830449219535561
0.03969422148019356
0.03170283185069196
0.024569565684229393
0.018477997575272125
0.013545964700801391
0.009819210838469573
0.0072703225844016894
0.005801780931936198
0.005253236131706484
0.005411550927497667
0.006022771373278771
0.006805114689705192
0.007462361241732533
0.007697779075822649
0.007228343971146578
0.005799771672441972
0.0032021258681635832
-0.0007147960012468711
-0.006027261104876578
-0.01272640269761227
-0.020712089481079384
-0.029793141298558323
-0.039695328969244624
-0.050077208157229554
-0.06063931445436739
-0.07139106090320911
-0.08223435183715394
-0.09264918312584713
-0.10205688232018034
-0.10994832375439434
-0.11599505635960994
-0.12005404423694707
-0.12205080760670992
-0.12184071372490386
-0.11913420831050489
-0.1139808628907736
0.12691289857815377
0.1339610155507653
0.13932253287150784
0.1428066949882071
0.14433746696219
0.14386953721048218
0.14140448456414678
0.13701761529570752
0.13087821381926507
0.12324524290880572
0.11444160928239391
0.10482019603900919
0.09466665047572184
0.08424024482029169
0.07385681283194011
0.06382307966890122
0.054401142924028034
0.045794724568255264
0.03813971775308352
0.031499285307603764
0.025863849637858788
0.02115541153126471
0.01723546783101189
0.013915514939664208
0.010969167882634441
0.008145023283570972
0.005179908129628218
0.0018121911035144244
-0.00220430294403196
-0.007086194908074395
-0.013005967498232367
-0.02007766721624203
-0.028344092451643304
-0.037766591263452026
-0.04821968198928086
-0.05949166349182566
-0.071292318076765
-0.08326794592106582
-0.0950391644686834
-0.10626725390338763
-0.11659368619476734
-0.12561609484771827
-0.13298262513219017
-0.13842414737267114
-0.14177544159823835
-0.14297629922946892
-0.14204900622252523
-0.1390662592611529
-0.1341265828623937
-0.12743115662860097
)
;

boundaryField
{
    "(inlet|outlet)"
    {
        type            zeroGradient;
    }
        "(front|back)"
        {
            type            empty;
        }
    "(top|hills)"
    {
     	type            zeroGradient;
    }
}

