/*--------------------------------*- C++ -*----------------------------------*\
| =========                 |                                                 |
| \\      /  F ield         | OpenFOAM: The Open Source CFD Toolbox           |
|  \\    /   O peration     | Version:  v1806                                 |
|   \\  /    A nd           | Web:      www.OpenFOAM.com                      |
|    \\/     M anipulation  |                                                 |
\*---------------------------------------------------------------------------*/
FoamFile
{
version     2.0;
format      ascii;
class       volScalarField;
location    "0";
object      nutCoeffs24;
}
// * * * * * * * * * * * * * * * * * * * * * * * * * * * * * * * * * * * * * //
dimensions      [0 0 0 0 0 0 0];

internalField   nonuniform List<scalar> 
1000
(
0.01660351881962874
0.021050709385647237
0.02654622775946921
0.031140049896815115
0.03331896610398386
0.032953507608504296
0.03039117509556792
0.026291684169563546
0.021805224886386327
0.01814066543211458
0.01598370612866285
0.015516010788232778
0.01593303342068878
0.016144769937175747
0.015878420816215207
0.015125038820122217
0.013912998888459772
0.012307541740988763
0.010406870066883298
0.008335280430366252
0.006234043061556634
0.00425054568220262
0.0025265802661053596
0.001186293851251109
0.00032527996548729584
1.8730187556462991e-06
0.0002318795269545019
0.00098762236344312
0.0022012806789658223
0.0037720339616928683
0.005575775406047412
0.007476326870488053
0.009336462073724301
0.011028315715088485
0.012442228096345043
0.013493579866594657
0.014127585111274986
0.014321596502663377
0.014285695729536911
0.014975322718873767
0.01714658371770815
0.020668308401157142
0.02490980625954901
0.0287307033481308
0.03103950497128395
0.03122405140809366
0.029009522695714843
0.02456883520151875
0.019261016372649688
0.014850187031961658
0.013935443746642384
0.01805188440668304
0.02414448504552522
0.03063163395202231
0.03552451926024362
0.03804866678799838
0.038028303686788945
0.035697216942871306
0.03202093785606725
0.028465985589437273
0.02622145928064019
0.02584839596561488
0.02644251255063556
0.026611842845780543
0.026008530071913023
0.02463172790515181
0.022539058857177743
0.019844378009367045
0.016710425038309804
0.013337299660138293
0.009947801840117709
0.006770691682623819
0.004023173777872369
0.0018933187433287384
0.0005246378599983066
3.978432098733735e-06
0.0003543852636509461
0.0015338960496423895
0.0034402483292927813
0.0059208341707284035
0.008786346567049184
0.011826967647526505
0.014828617006448665
0.017588916749007914
0.019931191343702265
0.021715807299611572
0.02284837400092986
0.02328426656161127
0.023283638941240723
0.024052759114913096
0.02643102910576823
0.02994902077800769
0.033527179780011365
0.03579725818743232
0.03583663504791622
0.033429447202542914
0.028789838604469934
0.022668708054160235
0.016842483990931183
0.01274958461858144
0.010447509013722055
0.013915946460281728
0.01994244879846927
0.02756490388955289
0.03472759763080055
0.040212568788386874
0.043383784972237646
0.04397499530708544
0.04246364302572758
0.04016741921044702
0.03854870453553351
0.03852204093221663
0.0392474788179014
0.039227708099814955
0.03809089744593763
0.03585523550901856
0.03262063794265732
0.028563876589248017
0.023926796466527435
0.018999216556515833
0.014097842047615732
0.009542800752876827
0.005633630041031487
0.0026259042449147374
0.0007113849918362396
3.187474055063557e-06
0.0005276352240545066
0.0022238523624708508
0.004950536672801234
0.008499089583654857
0.01261098731075406
0.016998125063201922
0.021363615359794006
0.025422361942052486
0.028920150692236354
0.03164970686863972
0.03346355972877419
0.03428229492539182
0.034371811702133194
0.03502464722846752
0.03701450565051754
0.03954627801732364
0.041285719289705834
0.04098244285568787
0.038150981761889316
0.03305129046063324
0.026335474941540923
0.019153499354384575
0.013364952866916236
0.009881836141905291
0.006698689161948159
0.009289481910380452
0.014557971529000346
0.022276606287281644
0.030739138255275418
0.03857640126185048
0.044862682897426544
0.04892254450480313
0.05062740405388081
0.050756585912058456
0.05061284587017244
0.051214923840932326
0.05196339697249572
0.05158441520983355
0.049767080586494504
0.04655913302939253
0.042109908007299426
0.03666210812984103
0.03053560249675568
0.02410498259546304
0.017772823916937498
0.011940273312481245
0.006977714663474562
0.0031967309778697947
0.0008271348578755117
4.5531467908199633e-07
0.000741822015381645
0.002970839861260598
0.006510636939306856
0.011103600384144055
0.016431521183962534
0.022138772205215936
0.027855731011422098
0.03322259823469451
0.03791198664918987
0.041649184357169994
0.044229559035010274
0.0455312436442631
0.04575949937544518
0.04602571192197104
0.04687713192285527
0.047382222258567926
0.04630980574081365
0.04287204975950052
0.03715229737819934
0.029824507130955327
0.021822737713366992
0.01444203245820069
0.00928499638683931
0.006632705809702552
0.0033433941747243318
0.004970671224888444
0.008921742183307492
0.01564342706752931
0.024093610179379638
0.033073987702783005
0.0415992855440837
0.04877361230899473
0.053933360955270356
0.05710982535977853
0.05901756715773461
0.060406379988762554
0.06103126091817426
0.06018126557469652
0.057693550900169255
0.053649198944925224
0.04824053907397257
0.041759908264429865
0.0345803740798369
0.02713024323749495
0.019863324935687286
0.013226849750008573
0.007629688050614164
0.0034125025139043162
0.000823539032631783
1.7268787015201935e-06
0.0009688016315500328
0.0036310333548824113
0.007789421314062449
0.013156708322488712
0.01937869916984807
0.026058612971226646
0.03278150225661327
0.03913922103293774
0.04475490894954978
0.0493052982750536
0.05254139902631319
0.05430443472555525
0.05467676455452986
0.05431131504535849
0.05341684144689841
0.05122226843937459
0.04697334371391676
0.04056345949006925
0.032615741418460624
0.024051255013581466
0.015872363143097385
0.009247614332904462
0.005244269466115121
0.0035258844428461703
0.0009805264059711048
0.001728572253381828
0.0040777872312066695
0.008935238359952793
0.016041905269021675
0.02462927398416699
0.03389041339416339
0.04293789340752882
0.05077682810400704
0.05670935499405303
0.06062661444127303
0.06270962090500554
0.06308190070999399
0.06178788802517754
0.05886045413683611
0.05440686843751708
0.04864025666232286
0.041866955968997206
0.03446695225008295
0.026869082160103783
0.019522795623117834
0.01286784298686889
0.007304382055078292
0.0031647762743609504
0.0006905169424740761
1.590486927324829e-05
0.0011601354425215715
0.004028515133032914
0.008421932600881052
0.014053028959065652
0.020566703174635624
0.02756373520773253
0.03462467751928592
0.04133427451289226
0.047305578745471394
0.052202359550721306
0.05576003001634982
0.05780270782745912
0.05825952741899521
0.05715196664018854
0.05432790884064689
0.049450481740093616
0.042488689037122614
0.0340468247613713
0.0251193198032497
0.016654435614044227
0.009506708431763567
0.00449074299544491
0.00197926429994
0.0011474173937485316
1.3251766224513334e-05
0.00012202394921578987
0.0009276023371179918
0.0035090632071114944
0.008294615156277834
0.015052384515312253
0.023323228034529284
0.03243926646865006
0.041350640210594376
0.048857155423726845
0.05406766695584456
0.05651079010548961
0.05659108673712286
0.05505413336536529
0.05211066720887672
0.047876663369156885
0.04255393319889718
0.03641826197979314
0.029802808892849912
0.02307800954011377
0.01662910428356964
0.01083198977759114
0.006029168166211721
0.0025064166055537686
0.00047302515871661756
4.703321797524001e-05
0.0012471471979691568
0.003992272647851181
0.008108351214892253
0.013341497601725835
0.019375590975627983
0.025853141190772238
0.03239671052200335
0.0386312072013949
0.04420547825798603
0.04881266706466446
0.05220875377150192
0.05422803150262561
0.05466108756410014
0.05290505351131994
0.04852704469693195
0.04176697266125715
0.03334731609642806
0.024413075304897603
0.016070369475319538
0.009083435907135848
0.003996960732558884
0.0011406996056181058
0.00018528139549346442
3.451765948179807e-05
0.000570369716357416
0.00038481505528786895
1.6111569978834186e-05
0.00044971817410365103
0.002559700561723456
0.006584615063206711
0.012449880150134342
0.019828505056581805
0.02788376543343109
0.035279050116698685
0.04063956067757823
0.042998298170652524
0.04287333893599725
0.04142063876439916
0.038949954732988144
0.035563989168797834
0.03142265818712042
0.026733994431194317
0.021742697003289683
0.01671721327356119
0.01193540636355767
0.007669056849044302
0.004167711325279075
0.0016423336529587734
0.00025045938166610835
8.413495641795265e-05
0.0011621778047141251
0.003427847232140493
0.006752255107835839
0.01094307016133185
0.015757443858730173
0.020918103177582897
0.026130664525769235
0.031101580223880758
0.035555807123115665
0.03925284403867001
0.04200128144414989
0.04367034578539977
0.04396909890081941
0.04186978694972051
0.03682220094176338
0.0295968993078442
0.021463064591376237
0.01378185377689012
0.007497655822401754
0.0030495024029451186
0.0006056304622132388
4.442316695561411e-06
0.0003561920798874475
0.0005473871011815877
0.002506575391770256
0.002406654223748697
0.0014344483298764617
0.00030497438912115463
5.925552873665932e-05
0.0012279067925722164
0.004028770844487474
0.00846601465437684
0.014080796040793379
0.01977532930279097
0.02413228962011964
0.0260086897653578
0.025841861890470257
0.024788895521456644
0.02315202354486779
0.021002875331082683
0.018441990077217967
0.015593371194645192
0.01259872138273667
0.009611485889370181
0.006790400903001638
0.004292113155817627
0.00226291402598526
0.0008294466271812956
8.948204881006273e-05
0.00010350831913850515
0.000888432755606986
0.0024143722313781056
0.004605135435660166
0.007342501194013595
0.010473869302988333
0.013822577929793774
0.01719963820499597
0.020416152736409916
0.023295479171532938
0.025684127996854655
0.02746108748432955
0.02854483629702954
0.028645504833660157
0.02664692540398044
0.02207664006322857
0.01600644859320109
0.009871008066426818
0.004873961658807641
0.0015959763758981419
0.0001170893868328582
0.0002689037153199038
0.0015112979273171163
0.0026427992574695903
0.0027597561484125612
0.005461332200080513
0.005791351610107499
0.004846767475706816
0.0030019585738716723
0.0012319441457247125
0.00015907774274507961
0.0001396469269729421
0.0013977872935946212
0.003867233047072394
0.0069295352354387385
0.009525152866984386
0.010676569497977234
0.010594563379635852
0.010080733477654789
0.009341141094260761
0.008410337185067743
0.007331458486406824
0.006154143921084134
0.004933027794308848
0.0037265538203524184
0.002595739754959698
0.0016023331950976768
0.0008061376864224337
0.00026135276442705916
1.2268145920810345e-05
8.88110649425249e-05
0.0005026278835224448
0.0012443851527916218
0.002282850565600297
0.0035660357801792306
0.005024361827340333
0.006575657291085542
0.008131218073724428
0.009602471377056639
0.010907460252680903
0.011976440846151456
0.012756328027525802
0.013213538291947461
0.013138434710096878
0.011681967783821336
0.008609102504273129
0.004965204376683091
0.0019342053430263446
0.00026728088394828404
0.00010803068050072709
0.0012491812991214345
0.003310797678961691
0.005566089599637899
0.006783015797619522
0.0064112360498344585
0.008940876343929262
0.009950846772804943
0.009593710163106506
0.00792343014893918
0.005697400942780447
0.0034691758322677596
0.0015893917086474514
0.0003601877545755599
4.395274909738044e-06
0.00042207070043589925
0.0011152528001528918
0.0014940336415704793
0.0014976636548059755
0.0014009539826419456
0.001276404990448656
0.0011306814506980487
0.000970316442800241
0.00080158658867207
0.0006307646338797919
0.0004645664865762579
0.0003106019496550395
0.0001775978619026104
7.526239566275824e-05
1.3696137608710187e-05
2.3925098972166212e-06
4.895062540746962e-05
0.0001577106284302288
0.0003285636237064746
0.0005562006723064175
0.0008299933795285978
0.0011346080628781981
0.0014513300009802276
0.0017598937245840661
0.0020405369529968415
0.0022759580649487003
0.0024528520972217603
0.002562824764508615
0.0026026703595518254
0.0024863822971020588
0.001867556243716487
0.0008164472887108566
6.26124717197229e-05
0.0002473794962147796
0.001549795800690783
0.0037410568924877386
0.006468280868507255
0.009302666328152851
0.011536226665256697
0.012139466125013517
0.010948171642580586
0.012399549212762656
0.014205008310856632
0.01482229294823342
0.014066191149813268
0.01240897532923024
0.010236726912597664
0.007796095999015563
0.005348342374591919
0.0032511298876506493
0.001794806340756797
0.0010128987413598211
0.0007415180555155197
0.0007023291846641062
0.0006867405543855068
0.0006535730144982472
0.0006033136184911881
0.00053842115735355
0.0004630424908863826
0.0003823886307385199
0.0003019220015177205
0.00022657432803253568
0.00016015403868442624
0.00010505523989961705
6.225496708487658e-05
3.155298603943023e-05
1.1938110174957687e-05
1.9948404572806843e-06
2.6760700572927455e-07
5.531491518997664e-06
1.694843983609403e-05
3.410343149962628e-05
5.693041934291797e-05
8.554530851996193e-05
0.00012001132990327565
0.0001600804996805395
0.00020496127192807024
0.0002531820056146411
0.00030259442318762903
0.0003810727707763748
0.0006710120812946968
0.0015026853832168419
0.003153604376788029
0.005658686785892021
0.008707990265733432
0.011865510287691464
0.014788268412684826
0.017140763039107304
0.018388622947464846
0.017837041033760003
0.01564332732758334
0.015316589527340307
0.017881702377665988
0.0196240693933198
0.020229634866208646
0.019891742843868
0.01879353878152604
0.017032417376352325
0.014753803521991533
0.012298835802295406
0.010133836058285479
0.008628307570797914
0.007931351099933748
0.007661244553339489
0.007320905921872534
0.006814091530806386
0.006161117517399684
0.005393251721824999
0.0045502295295783346
0.0036768550133970124
0.0028191916111176443
0.002021014542383677
0.0013208806877332445
0.0007501043020518527
0.0003316113062379309
7.964597512104196e-05
1.3317564045924998e-07
9.148732275892439e-05
0.0003456903865768946
0.000749399674340379
0.001284899402847098
0.001930744305920925
0.0026620914465115024
0.003450770320405933
0.004265376718054859
0.00507170652044799
0.005833753441463863
0.006515506397255698
0.00708340952564993
0.007623408787772529
0.008673605379771727
0.010692533082303167
0.013559173230181912
0.016866314132547303
0.020046887878921456
0.022652300822066908
0.024464081405924126
0.025319041415167855
0.024927024743570808
0.022951977849932824
0.019752322258411517
0.0172729496514255
0.02042153416175801
0.023186480250357126
0.02523192814102637
0.026533136664939866
0.027090555077004353
0.02685716325718439
0.025837197387967116
0.024242977553244918
0.022497785485194984
0.021050975088804068
0.020180178767939937
0.019527084173465846
0.01855284711254205
0.017173928033401092
0.01544993467107363
0.013462474006628013
0.011309333529302277
0.00909758477230941
0.006936468953624928
0.004930872240627828
0.0031757990736325254
0.0017521912259916823
0.0007239286206551849
0.00013601081728114694
1.3746377517835608e-05
0.0003627322428820478
0.0011694919054312072
0.002402534051430356
0.0040135952229593186
0.00593894021954693
0.008100774424264965
0.010408870929421983
0.012762981788258658
0.015056400864625749
0.017180932776722706
0.01903341719400211
0.020523017582874923
0.021718809373237512
0.023239966092337333
0.02551850581695952
0.02822581077234611
0.030803618054023426
0.03269734195319244
0.03359766899363316
0.033456348836501795
0.03229091737630797
0.03004772828681749
0.02669323384043779
0.022658412903133057
0.018022956017061293
0.021478971643117836
0.02494959298272089
0.028152996545231238
0.030933308132543944
0.03316625719234064
0.034703527106942654
0.03543019183773455
0.03538308183106789
0.03479015728856092
0.03396385741367576
0.03313500402215587
0.03206246987393294
0.030367368745848496
0.028027705923738093
0.025147017683308848
0.021860275066986144
0.018324886584058574
0.014710670791342086
0.011189979475795368
0.007928717630633273
0.005078733084242409
0.002771824376008412
0.0011151049785916775
0.00018773949126226917
3.875044059174534e-05
0.0006857639922344168
0.002114525517787359
0.004279021021691349
0.007102103141909603
0.010476567554434206
0.014267220193523026
0.018313879367444868
0.022436676061426606
0.026443602864790177
0.030140862486927673
0.03334539149979523
0.035898424713002856
0.037791116717788224
0.0394760520285444
0.04124398420907818
0.04277663953203188
0.04363769563238949
0.043483543335009506
0.04221396508833089
0.039935246383546785
0.03680488040457739
0.03294830803222234
0.028537629852167606
0.023975310272916765
0.017540377350404163
0.02099059589058807
0.02472711057016029
0.02855275697722594
0.03226265045202941
0.03567609151244161
0.03860185715726572
0.04085864839988081
0.04233275786502069
0.04301780897556761
0.042988925336693205
0.04232868804233055
0.04094175470102508
0.03869582071144722
0.0356430214714691
0.03191915414332381
0.027697446156761146
0.023177313129279228
0.018572309458480037
0.014098222557032953
0.009962497822754143
0.006355305512612561
0.0034425479436461727
0.001360579335006725
0.00021237236668858792
6.481539162416826e-05
0.0009467387112651625
0.00284745706050952
0.00571565278653157
0.009458571189651559
0.013942014664694314
0.018991601238213744
0.024396303016474906
0.029915324601263553
0.03528896129954947
0.04025340159147156
0.04455874673022065
0.04798813648639265
0.05043297370164092
0.05205595307146985
0.05296444129261662
0.052990210808098084
0.05196311350278978
0.049820725218121135
0.04665980457206692
0.0426899411593147
0.038147656029736576
0.03326136673102763
0.028305874378679118
0.023599061163967976
0.016013974485581475
0.019176302660735382
0.02273577052179218
0.026570864791391577
0.030484520723904153
0.03429388783742637
0.03781355248191884
0.04085190272166942
0.04321659522315446
0.04473593963451497
0.045285469305173714
0.04480236706049022
0.04330145254612537
0.040854274576926544
0.037564374421177674
0.033577776247503056
0.029079295178448122
0.024280647644387646
0.019407562142389204
0.014687203651406933
0.010336928123925107
0.006555173416232846
0.0035146004954297256
0.0013573142542640932
0.0001916935148637429
9.020968667826941e-05
0.0010876077888143283
0.003178988159240919
0.006317543737770586
0.010412263182517374
0.015325932004539492
0.020875095168351437
0.02683260814079289
0.03293476892234578
0.03889346175853811
0.044413325367708555
0.049212796426344886
0.05304638846432096
0.05573026236342104
0.05716607001894546
0.05730967703522134
0.056161766712938564
0.05380406587927346
0.05040052123621325
0.04617498719480626
0.041378686402288554
0.036268072945370336
0.031102767192261804
0.026175010969763126
0.021707364513470412
0.013784814348036276
0.016461503584923744
0.019505109663563402
0.02284123116518553
0.02630879724989723
0.02975318152416819
0.0330212424108155
0.03594923163013914
0.038343598762755844
0.03998619398702642
0.04067661281092717
0.04028739647664225
0.03887889284111748
0.03660832067731707
0.0335907573943029
0.02995938672449013
0.025881972259939358
0.021550091545479117
0.01716719290492801
0.012937045140194878
0.009053511480868503
0.005692596707318835
0.0030068689827926283
0.0011220384920742062
0.00013502091603075526
0.00011265093215300428
0.0010902525158766679
0.0030694340340088563
0.006014959236563323
0.009851041599307515
0.014457854714682543
0.01967000809082294
0.02527798418150967
0.03103461108252409
0.03666697447462079
0.041893526489519044
0.04644497434434147
0.05008628154860769
0.05261351825888165
0.053801948978002376
0.05353718382012132
0.05191765857767834
0.04915348340919523
0.045505775056026494
0.04123252074954778
0.03657178969970301
0.03175534698076703
0.027020576530964336
0.022621155116949086
0.018704669782947027
0.011245183621341777
0.013346186196064707
0.015697967892670354
0.018246611433912333
0.02087562480097986
0.0234694554573956
0.025914716224657127
0.028091443713886145
0.02985597874883438
0.03104147224212795
0.03149019833304931
0.031100077087894872
0.02992454532559488
0.028096566819862848
0.025709251020719276
0.022866599970163506
0.01969810521398562
0.016350476077361766
0.012978663651353979
0.009737130746742782
0.006772433083401449
0.004217603509475811
0.002188541078978453
0.000782013109847787
7.464009537834684e-05
0.0001220027647663836
0.000957112659038604
0.0025877913482975066
0.004992866052639478
0.008117768587324563
0.01187045281365485
0.016119241609884545
0.020693896806285094
0.025391317723576102
0.02998630837967134
0.03424671504717622
0.037951505784128446
0.040909321480124855
0.042950785310709234
0.043873225509889376
0.04357695411887703
0.04216579912938268
0.039836590597857956
0.03681813369782724
0.033323259538250806
0.029540387667907543
0.02565096575497774
0.02183969223940385
0.018294803245266292
0.015118787595484184
0.008739251478095029
0.010273405132065934
0.011918098274108594
0.013626858682041353
0.015327297401004187
0.016943860117808476
0.01840120806363379
0.019624336628626088
0.020535653475146635
0.021057810708729283
0.02112613674392234
0.020704550791846767
0.019817689962622752
0.018526043519722354
0.01688705786148754
0.014969935007707373
0.012858276879019324
0.010645221487182284
0.008428255797315924
0.006304415906755592
0.004366296051681711
0.002699192183284821
0.0013793024493816484
0.0004726817544125671
3.442984526386179e-05
0.00010754011994100811
0.0007209190177722223
0.0018863830144782699
0.003594726538959278
0.005811545458345414
0.008473650662108591
0.011487380902186458
0.01472985473182007
0.01805402847660687
0.021297519871156686
0.02429456071556921
0.02688952684889117
0.028950052669465463
0.0303692195918965
0.031048675900329475
0.030948545849110384
0.030121405576219614
0.028669055211836433
0.026717179318053067
0.024394271471305785
0.021824738160966303
0.019131737099097698
0.01643726799831813
0.01385829744520863
0.011474024240724504
)
;

boundaryField
{
    "(inlet|outlet)"
    {
        type            zeroGradient;
    }
        "(front|back)"
        {
            type            empty;
        }
    "(top|hills)"
    {
     	type            zeroGradient;
    }
}

