/*--------------------------------*- C++ -*----------------------------------*\
| =========                 |                                                 |
| \\      /  F ield         | OpenFOAM: The Open Source CFD Toolbox           |
|  \\    /   O peration     | Version:  v1806                                 |
|   \\  /    A nd           | Web:      www.OpenFOAM.com                      |
|    \\/     M anipulation  |                                                 |
\*---------------------------------------------------------------------------*/
FoamFile
{
version     2.0;
format      ascii;
class       volScalarField;
location    "0";
object      nutCoeffs4;
}
// * * * * * * * * * * * * * * * * * * * * * * * * * * * * * * * * * * * * * //
dimensions      [0 0 0 0 0 0 0];

internalField   nonuniform List<scalar> 
1000
(
0.16748298341130072
0.17950974706317127
0.18586447395031475
0.18214839946602643
0.169186348758807
0.1500440016885484
0.12728643872871437
0.10325565747437465
0.08063784455013265
0.06162731372035286
0.04685012797480258
0.03543037672219406
0.024811514991209583
0.013177009672296413
0.0005408865225449983
-0.012659781850825369
-0.025924607790221328
-0.038715406248253856
-0.05048510066183998
-0.06070833165865798
-0.06891032259450887
-0.07469257405291005
-0.07775302294617172
-0.07790001287725354
-0.07505922910966722
-0.06927437465276397
-0.06070189311462757
-0.04960238529087873
-0.03632826338727341
-0.021309599020169497
-0.005039254510242037
0.011945374035947707
0.02907961411493128
0.045793143872310954
0.06153294088423804
0.07578670091061616
0.08810735209511746
0.09813539257478741
0.10638779287720429
0.11658731595061282
0.1319309660958995
0.15138047787227474
0.17181573812571296
0.18903643271689957
0.19961692448631194
0.2014473335471687
0.19304781505584928
0.1747211461341984
0.1526141529936373
0.13493345551463976
0.16363105939560493
0.17715520864512715
0.1885446233395888
0.19192621751121935
0.1855782790540757
0.17137199592434108
0.1515153233917851
0.12826277173896705
0.10445236789461695
0.08283621383161777
0.06481756992511532
0.050101207040971714
0.03611099962239934
0.0208122637797179
0.0042613900433566415
-0.012976223618683572
-0.03025942094349719
-0.04690277684526363
-0.062212682491761935
-0.0755250550635261
-0.08624167563904324
-0.0938622928494549
-0.09800912671959951
-0.09844414423709244
-0.09507688359793727
-0.08796450179819565
-0.0773046029219378
-0.06342403587355347
-0.046763137304284635
-0.02785828256471417
-0.007323729411510041
0.014171249801713066
0.035923110195056944
0.05722103696543088
0.0773748446744347
0.09574376111586057
0.11176601937360155
0.12498562272976914
0.13579461843830037
0.14760840841487846
0.1631240805524061
0.18065098050128348
0.19657602793093065
0.20688928741693705
0.20891556222852198
0.201402648694099
0.18394847161932176
0.15850498037659383
0.13308088897355322
0.11579057453089396
0.15311782742786556
0.1676771774385369
0.1838246373965793
0.1946482168304824
0.19597972546098502
0.18828679016926303
0.17320157656897084
0.15268335030705232
0.12943575631755225
0.106466712432558
0.08582155555922717
0.06788766498699546
0.05036967580515943
0.031218334138282695
0.010568593102128565
-0.010879440623392968
-0.032340869257370994
-0.05298388565573239
-0.07197284202288391
-0.08851263169644785
-0.10189146001678452
-0.1115175246818208
-0.11694722888661858
-0.11790410027308286
-0.11428653349187687
-0.10616671188720117
-0.09378104599814724
-0.07751607601458015
-0.05788993509850939
-0.03553144608507801
-0.011158991242463678
0.014445015648918293
0.04045884621293535
0.06605067670284102
0.09041111704499606
0.11278468632827704
0.13250351001184504
0.14901765674963263
0.16248250692393137
0.17546518779081474
0.1897525050759844
0.20326538292352908
0.21250535966478024
0.21432048272115076
0.2071540291486076
0.19065573955992132
0.1653563279881419
0.13447646575689123
0.10717478879345059
0.09101944969520924
0.1357075011425749
0.15070695107562113
0.17089864239470254
0.18885095475626335
0.19830046078835709
0.19825588222428894
0.1895920473665011
0.17376559864537897
0.15305455652941777
0.1303779273858059
0.10818614080574854
0.0875377885720643
0.06671746473149602
0.04392530613910057
0.019413351101853174
-0.005996189631040013
-0.031392333894747736
-0.05581854294236617
-0.07832125365345356
-0.09799894792863172
-0.11404851280805625
-0.12580513987382047
-0.13277189093590389
-0.13463946899043822
-0.13129359806993526
-0.12281305461540461
-0.10945840389572783
-0.09165647355490827
-0.06997901445470557
-0.04512035192532782
-0.01787371043455962
0.010896567619840272
0.040281217411360495
0.06935796246617905
0.09722553721850236
0.1230375899450404
0.1460384169980209
0.16559547878211586
0.18153288260518524
0.19508648957619307
0.2068397696650818
0.21473662798507737
0.21604586861648173
0.20896731658105244
0.19316677630858362
0.16905661021831378
0.13786029150689078
0.10364700136136659
0.07603550066371817
0.06170622857767047
0.11168442895667519
0.12643641194683577
0.14956596335295141
0.173647191196878
0.19086826561078335
0.198908836962687
0.19780748586821426
0.18835571816599175
0.17213092095517765
0.15159427295251676
0.12928645435480535
0.1068171769763671
0.08331133774482098
0.057510021884624875
0.02981699521054474
0.001144943892192816
-0.0275063738975559
-0.05509702695519204
-0.08059774923121676
-0.10304056896425219
-0.1215659345413442
-0.1354623855479005
-0.1441961774652074
-0.14743073075764773
-0.14503375323536105
-0.1370751710010262
-0.12381601167266831
-0.10569240508993435
-0.0832944338977486
-0.05734295502574177
-0.028665302114807625
0.0018335452575692023
0.03319800295539149
0.06445435741943638
0.09464625154239319
0.12286854714074445
0.14830506004068236
0.17026113805591003
0.18818066294334934
0.20167591129944634
0.21002776202233614
0.21163138528823508
0.2050092060394052
0.18990339621408123
0.16707725438808152
0.13749189811043308
0.10282248130997403
0.0675840366534269
0.041222154605640327
0.02930108300111873
0.08187497957468795
0.09565245159362343
0.12032010890240473
0.1489275422244832
0.1727677686521384
0.18847486936499488
0.19530200835196307
0.19331342807279334
0.18318766167299036
0.16658159913710902
0.14576366017891762
0.12268299811729337
0.09748899511232847
0.06973022415079452
0.03998318298708955
0.009204622123003554
-0.021569445597879957
-0.05127099726466294
-0.07885004465374909
-0.10332343074535565
-0.1238190966939192
-0.13961361785079848
-0.15015932684525737
-0.1551027108548342
-0.1542912229142193
-0.14777173881166075
-0.1357807019249021
-0.11872989888288663
-0.09718643569626184
-0.07185129079449631
-0.04353592846665655
-0.01313470357673393
0.018401868590971326
0.050098680607596605
0.0809905325356932
0.11015616377002571
0.1367549632367471
0.16006001429689135
0.17915478854662645
0.19202349844316982
0.19674692754107462
0.19245064396195016
0.17908759992548792
0.15783559374173414
0.13030874193835285
0.09781985135173035
0.062292908908428306
0.02831873201087281
0.004618814782789023
-0.004471809638973078
0.047615289132361
0.059711189107763095
0.08435881203960383
0.11545717554911814
0.1440788000008285
0.16618587112691513
0.180401415914772
0.18611605362241754
0.1830478169774269
0.17180769434224502
0.15404651348943937
0.13178321335202367
0.10625488569411266
0.07799106761970397
0.047737844543227985
0.016439608369055846
-0.014891529322446757
-0.04522101995794448
-0.07353789267342402
-0.09889893439098947
-0.12046792314621797
-0.13754871129388596
-0.1496087199238004
-0.15629528625516562
-0.15744170387847387
-0.15306620798875775
-0.14336382189772037
-0.12869396142352005
-0.1095635151343964
-0.08660804299798437
-0.060571129168798976
-0.03228001500065227
-0.0026220271649649066
0.02748461232261721
0.057121782963566875
0.0854039112363737
0.11151216037117834
0.1347273380722407
0.153865548304095
0.165582328434911
0.16701839090000414
0.15806628697560365
0.13997012253720542
0.11503521628400408
0.08545079710896157
0.052727746936311305
0.01886691742351279
-0.011798368586139264
-0.03170691948425251
-0.037746915496711886
0.010660898034501088
0.020450272086262017
0.04351860059232204
0.07486439902493465
0.10596767366595113
0.13252375502205688
0.15273890698887044
0.1654713204564569
0.1695649633895812
0.1645170495179858
0.1511218953595751
0.1311973908616259
0.1069744336393126
0.07998310993387879
0.0511030776370007
0.021207328419408745
-0.008776806650585785
-0.03790758256943458
-0.06526960963415598
-0.09001104788979446
-0.11137704075908081
-0.1287370796456288
-0.14160481400034114
-0.14965132013786936
-0.15271017128464834
-0.15077606695427276
-0.14399799379830402
-0.13266830067604643
-0.1172086646013271
-0.09815432521961577
-0.07613753527044174
-0.0518681863162988
-0.02611449141920817
0.00032006584193747353
0.026623486316992795
0.052002567283003266
0.07571408614969309
0.09709459736928355
0.11484433328631845
0.1248196764015246
0.12358290477757083
0.11162094172570075
0.09111149056707554
0.06507980888348011
0.036019412141251664
0.005509109873832645
-0.024530693491030642
-0.05030318980343466
-0.06568944440822046
-0.06868554759872358
-0.02696636527574209
-0.019965356819194043
0.0001302537659458902
0.02952773537619456
0.06063467321995115
0.08927075175730931
0.11346142303994744
0.1317216673948928
0.14222386838074114
0.14346893233509303
0.13532279998854083
0.1191916739829218
0.09804997649460626
0.07427071286805442
0.04879885437972872
0.02238059824007184
-0.004195300661302428
-0.03013130989992487
-0.05465431428578556
-0.07704616902356905
-0.09667064435979307
-0.11299571901448437
-0.12560927836747537
-0.1342297732359482
-0.13870949984301062
-0.13903268072094083
-0.1353088465535846
-0.12776245481793053
-0.11672100745953914
-0.1026021261805826
-0.08590053994416122
-0.0671744384760242
-0.04703163801092752
-0.026113290399422177
-0.005074177487568675
0.015438853884760578
0.03481232242706121
0.052491828245883464
0.067237018092392
0.07473805503580888
0.07139555965991397
0.0580225138709565
0.03727601798492134
0.012460807603993674
-0.013891680211667444
-0.04025958732295863
-0.06494176022764199
-0.08486948946940853
-0.09547190151137765
-0.09565721639601972
-0.06318338235433663
-0.05925681374127448
-0.043205079423445245
-0.01764207029743899
0.01112672975504859
0.039378943676277
0.06519065117342622
0.08694342382174035
0.10241292760084823
0.1093682476733618
0.10684629385005953
0.09572740456033031
0.07936636286647626
0.0606724106096884
0.0405654795588011
0.019619834209110024
-0.0015570555317012604
-0.022350577613586928
-0.042164860618706536
-0.0604465489248112
-0.07670595450690411
-0.09053442917145231
-0.10161687128477231
-0.10973945566203691
-0.11479167890933485
-0.11676325748856185
-0.1157370838350962
-0.11187919668929058
-0.10542771834319441
-0.0966817910405096
-0.0859918416909899
-0.07375016268514083
-0.060382693078048014
-0.046339282734431254
-0.03208139859067185
-0.018067548637070097
-0.004734889893780447
0.007520472472114086
0.017681516809408482
0.021874908283527197
0.016760856608042628
0.0032183091593666474
-0.016070125123899867
-0.03794531997336075
-0.06008527880385418
-0.08113694746394533
-0.09971556161631354
-0.11356221975689049
-0.11959296219319235
-0.11739694803992795
-0.09606456103279318
-0.09527126688790286
-0.08389629332459259
-0.06351790820352719
-0.038985525892464845
-0.013330722990389466
0.011769362892040969
0.03476733183084289
0.05334653269323584
0.0649014064427795
0.06787245563786788
0.06260312514214227
0.05242197355971469
0.040383272535447226
0.02728564786649669
0.013500261765057775
-0.0005753381591131328
-0.01453555013728048
-0.027985133046784197
-0.040556866732987217
-0.05192709870159244
-0.061829022277593786
-0.07006175611013454
-0.07649580034433451
-0.08107348266111546
-0.08380496161200963
-0.08476087355845979
-0.0840622041335851
-0.08186979415043427
-0.07837454855772252
-0.07378945953386397
-0.06834361478337392
-0.06227789351466379
-0.055840870414879236
-0.049283173707929236
-0.042849843268157856
-0.03676996459564402
-0.03124412999084569
-0.026945302058622094
-0.02684617852706142
-0.03366954873154983
-0.04666631224969249
-0.0635102009170198
-0.08153597498467728
-0.0988226155835938
-0.11426197281722819
-0.12682485995181086
-0.1350366748191279
-0.13711461250694418
-0.13310767447574096
-0.12402368474733315
-0.12619312095072938
-0.11964404216071307
-0.10512588621483632
-0.08604369395800543
-0.06463294607903108
-0.042196370730974764
-0.02004540245498222
-0.00030287986232644
0.01443531181268384
0.022327940382500248
0.02326187586740632
0.02016427113444595
0.015837800200194554
0.01087482250288029
0.005428407692251458
-0.000327832287057802
-0.00621051696902589
-0.012038046839730981
-0.017642147169196164
-0.022878298146172385
-0.027634484387645722
-0.03183706152469885
-0.03545353503017063
-0.03849141579212987
-0.040993602831448386
-0.04303067063894044
-0.044691384049338326
-0.04607267854723049
-0.04727107253145552
-0.0483757509454115
-0.049464822826593015
-0.05060360583882883
-0.05184452162345266
-0.05322683712834842
-0.054775709515842715
-0.056499203689539285
-0.05838436596267914
-0.060700785067990974
-0.0652706437473046
-0.07397217207645942
-0.08629537404822674
-0.10051628382592571
-0.11467567687670638
-0.12735450977588011
-0.13771798098520863
-0.14507844544126144
-0.1486411582999115
-0.1476692270938569
-0.1424919645977287
-0.14591819824208183
-0.15067948978047147
-0.14865411690974553
-0.13998162608146789
-0.12676961367003992
-0.11047283939388465
-0.09197680426543581
-0.072262309816061
-0.05304648510334857
-0.0365788988390272
-0.02465398771275666
-0.017693282295739195
-0.013447035676915981
-0.00968903760233564
-0.006090614786427455
-0.0027134130439822658
0.00039457490921082975
0.003195242452932822
0.005655345378621316
0.0077409350761156095
0.00941217711650546
0.010619448807031475
0.011301295097817684
0.011384834554862661
0.010788682189622669
0.009428530248983713
0.007224518024779096
0.0041099910690779486
4.016286292888012e-05
-0.0050004816985319
-0.010992687250916863
-0.01788015669191883
-0.025569666663569256
-0.03393368362749801
-0.04281441066646087
-0.05202826559174712
-0.061370070149306885
-0.07061719109035587
-0.07964528385416073
-0.08911648008619219
-0.10000223065950599
-0.11204276032836093
-0.12419037361765069
-0.13523803256427838
-0.1442730336535474
-0.15072194170135972
-0.15418891805783655
-0.15441285278419495
-0.15142846960416828
-0.14571868536924415
-0.16107261895133212
-0.1679054541490119
-0.16974320027236606
-0.16631105260837686
-0.15864336150126196
-0.1475139269507926
-0.1334210933862954
-0.11699876497710844
-0.09945825043127829
-0.08248711034072317
-0.06756970657405634
-0.05526482494575278
-0.04413077749941219
-0.032707435997587665
-0.02094705683789423
-0.009103223866134661
0.0025753099751716956
0.013847050910926268
0.024478265881603106
0.03424336937395681
0.042925011153093676
0.05031550480950046
0.05621908725125685
0.060456056053605364
0.06286818088307064
0.06332508087813836
0.06173171235391421
0.05803567254126771
0.05223424214151542
0.044379990506121916
0.034584313871056684
0.023018303597983826
0.009910783551765176
-0.004456450718130542
-0.019756089005512213
-0.03562402492440054
-0.051669883504904236
-0.06748785819150911
-0.08262953180357648
-0.09679766676036564
-0.11014834593496146
-0.12259579472311935
-0.13367815127592914
-0.14283949946463073
-0.14960066575894115
-0.1536108462178704
-0.15470044813391798
-0.15298603465355104
-0.1490147506899266
-0.14334392182885258
-0.16925272201210967
-0.17754686639726733
-0.18234840760921778
-0.18312858717601782
-0.1801037067205585
-0.17350953696711843
-0.16352907294029664
-0.15049160684837928
-0.13511413386862248
-0.11846406919875145
-0.10158252209315297
-0.0850272296993608
-0.06814155079220656
-0.05025521763417459
-0.031574532102855365
-0.012504180425128315
0.006546164777284004
0.025168564394305856
0.042962357074933004
0.05953904942633454
0.07452778508834508
0.08758171534414008
0.09838491319291978
0.10666044143653504
0.11217840642749277
0.1147638885896872
0.11430427592061938
0.11075555823526813
0.10414735326830031
0.09458623436999677
0.08225714071083491
0.0674217022840258
0.0504147720873803
0.031637052647825306
0.011545215585955403
-0.009360437352053875
-0.03055052102468278
-0.05148281698574424
-0.07149502749862068
-0.08966218661632945
-0.10552499207323152
-0.11904551822709653
-0.13014792697304575
-0.13873102501912898
-0.14462919721974574
-0.14766187405852707
-0.14781828410401254
-0.14544711413117195
-0.14138234859214177
-0.1362087775286415
-0.17063564600572234
-0.17974683514858358
-0.18649216936318178
-0.19021706628713544
-0.19058073057018404
-0.18743775426404438
-0.18074226339607086
-0.17059065116858352
-0.15729693696715238
-0.14138851957936927
-0.12347476871999248
-0.10404244189769644
-0.08307498243389905
-0.060565375825453995
-0.036910301715049075
-0.012612203555513991
0.011812754078872814
0.03584401091763506
0.058964785510602115
0.08067103338956179
0.10048028004274873
0.11794244940120198
0.13265079371727143
0.14425343535800303
0.15246427714431476
0.15707235131788913
0.15794971195135796
0.1550567542170547
0.14844552710387982
0.13826076083686326
0.12473838610049393
0.10820166131718292
0.08905475558623335
0.0677735802590011
0.044893409900016695
0.020994645256750655
-0.0033142175228196066
-0.027414690067851577
-0.05055368624373899
-0.07154049762735228
-0.08955148108376451
-0.10447522822476554
-0.11639012493898003
-0.12542233366197353
-0.1315852560169219
-0.1348122365333538
-0.13518857894381106
-0.13317033476573972
-0.12969189795427147
-0.12533365156968526
-0.16579640601279985
-0.17509667905833226
-0.18275121375298636
-0.18808202029319734
-0.19044369738532343
-0.18946685092447532
-0.18496502608827217
-0.17688282712616857
-0.16526278627815197
-0.1502572053751685
-0.13215748088495288
-0.11137131459093479
-0.08830637026512866
-0.06339591951358728
-0.03714319272575321
-0.01009047484362275
0.0172005109620831
0.04415868766527794
0.07021297036195201
0.09480211937388411
0.11738653369338278
0.13746103174241062
0.1545687503836377
0.16831541184572127
0.1783823227951279
0.18453746496748435
0.1866438070026609
0.18466426252325963
0.17866370397417128
0.168807509902709
0.15535784607248349
0.13866669680418356
0.11916710114237959
0.09736189042581828
0.07381023881059501
0.04911253199838979
0.023893295748126965
-0.0012165073844141864
-0.025480320208688543
-0.047743525680737045
-0.06706386202058312
-0.08319003797180774
-0.09616592668541193
-0.10614833685859454
-0.11320874153524511
-0.11734029267962261
-0.1186694227382398
-0.11765836336033815
-0.1151939241938415
-0.11182157345363992
-0.15569541237736398
-0.1646188990248046
-0.17223176099112725
-0.17791159202193607
-0.18093667430257646
-0.18086170483531727
-0.17744464565046286
-0.17056002796514624
-0.16012020170515054
-0.14609360710810726
-0.12860502698652562
-0.10800195537512064
-0.08487865563875714
-0.05985736894773974
-0.03346244370158414
-0.00622215798652079
0.021314518146224284
0.04858633537287201
0.07502872441262115
0.10008289167127199
0.12320805168232546
0.14389476024923892
0.16168018048456737
0.1761635649520833
0.18702086134983248
0.19401689876205597
0.1970141880148791
0.19597773861104575
0.19097594278227556
0.18217747862277484
0.16984531037006262
0.15432737613298905
0.13604625274405194
0.1154864290800178
0.09318073465756452
0.06969604288953898
0.04561825905217018
0.02153664639884891
-0.0019009044443608245
-0.023758567779951556
-0.043170814930801764
-0.059760546199261355
-0.07344222159324992
-0.08427936626067103
-0.09231470932426361
-0.09755445361924764
-0.10011971519601547
-0.10040149718487427
-0.09912803848423775
-0.09677472902324222
-0.14162353892269036
-0.14970928777060738
-0.1565057475499048
-0.16150136847718094
-0.1640831916704769
-0.1638548036628106
-0.16059366178745235
-0.15417801267886985
-0.1445168185041302
-0.13156503974088654
-0.11541614732084945
-0.09637304227018818
-0.07500215699376403
-0.05189461069720965
-0.027524555678835085
-0.002362360354642148
0.023102668625081504
0.048368898473882024
0.07292846728562728
0.09627511515105461
0.11791448665689264
0.13737700899171978
0.15423266222952903
0.1681067943324493
0.17869503464195005
0.18577576377247196
0.1892192555874196
0.18899227400589955
0.18515810620261797
0.17787250218573974
0.16737625874144607
0.15398504534096127
0.1380780760191072
0.1200857574682618
0.10047708651447572
0.07974759973928768
0.05840697952796864
0.036966765868165725
0.015956331801218845
-0.003960421635622159
-0.022113437011991196
-0.03808246731255699
-0.05165936643695674
-0.06277639874617813
-0.07140320088159662
-0.07752444564829133
-0.08122059053281985
-0.08275911904216594
-0.08263707147506308
-0.08122204561760599
-0.12507079972588564
-0.13199774979854634
-0.1374531839372217
-0.14107025453287553
-0.14246916047308497
-0.14139011270220406
-0.13768431292041802
-0.13128862506689537
-0.12219742610527272
-0.11046612020395101
-0.09624203618753827
-0.07978542366165003
-0.061486057851786007
-0.041758387893786754
-0.020979849123909298
0.0004656267679192094
0.022179830418537137
0.043753409555056015
0.06476934148273374
0.08480803287590771
0.10345518870159041
0.12031269390850254
0.13501194022959478
0.14722852531115668
0.1566964090620795
0.1632200860671396
0.1666832026854824
0.16705297381050832
0.16437991393860962
0.15879347651047637
0.15049460582741012
0.13974604912922806
0.12686168840674095
0.11219577517330064
0.09613252331159189
0.0790764971096188
0.061443319603760316
0.043650577508454316
0.026112692883557657
0.009263786481121718
-0.006459877473537553
-0.02070169742526628
-0.033204261506561986
-0.04379856670300366
-0.05237692665168197
-0.05888433068303885
-0.06334035078670709
-0.06586591518046372
-0.06669497399712086
-0.06605551282585528
)
;

boundaryField
{
    "(inlet|outlet)"
    {
        type            zeroGradient;
    }
        "(front|back)"
        {
            type            empty;
        }
    "(top|hills)"
    {
     	type            zeroGradient;
    }
}

