/*--------------------------------*- C++ -*----------------------------------*\
| =========                 |                                                 |
| \\      /  F ield         | OpenFOAM: The Open Source CFD Toolbox           |
|  \\    /   O peration     | Version:  v1806                                 |
|   \\  /    A nd           | Web:      www.OpenFOAM.com                      |
|    \\/     M anipulation  |                                                 |
\*---------------------------------------------------------------------------*/
FoamFile
{
version     2.0;
format      ascii;
class       volScalarField;
location    "0";
object      nutCoeffs2;
}
// * * * * * * * * * * * * * * * * * * * * * * * * * * * * * * * * * * * * * //
dimensions      [0 0 0 0 0 0 0];

internalField   nonuniform List<scalar> 
1000
(
0.010093114563833543
0.024530447661746738
0.05761002778481393
0.10164131985626583
0.14310988771544467
0.17547637647307937
0.19653983867839236
0.2058349993702841
0.20501931591021016
0.19857627128801436
0.19205764472872147
0.18949664985964715
0.1890402379267537
0.1863751238570749
0.18045809389911882
0.1712805712992967
0.15892549057020713
0.14356582347990557
0.12546122948462168
0.10495219338631614
0.0824520252542859
0.05843522989682314
0.03342420703114983
0.00797085384276085
-0.017361677286285713
-0.04201801932071633
-0.06547139523461093
-0.0872376499672463
-0.1068904738231135
-0.1240713745829903
-0.13849621806767598
-0.14996104851966488
-0.15834366815690867
-0.16360597257863208
-0.16579410528461933
-0.16503649302826293
-0.16153989531325466
-0.1555819503095699
-0.14821550218877796
-0.142677764648858
-0.13950021449732866
-0.13437891179822234
-0.12226103098498836
-0.10007789730040811
-0.06797978031297386
-0.028136540086871817
0.015531102546848636
0.055339418153383224
0.07966374168726877
0.08520468558923393
-0.021049251573262266
-0.010237819695577733
0.019913709903945784
0.0644195156266124
0.1109191251769541
0.15214393907629073
0.1846998468181305
0.20670763680958304
0.21790574784989478
0.2209244491037321
0.22037711337126098
0.22021661991762473
0.21986029675154214
0.2164978656333509
0.20940433147001536
0.19856668538549554
0.18407514880090214
0.16612309828834154
0.1450046444638766
0.12110942048608006
0.09491394511815857
0.06696864638283881
0.037882955555361995
0.008303842524256226
-0.021105920926248974
-0.04969100000560055
-0.07682887001108595
-0.10194834468236609
-0.12454990281971529
-0.1442186702750459
-0.16063346482324992
-0.17357399608906668
-0.18292113443136818
-0.18865739330650474
-0.1908632086595527
-0.18971111682355005
-0.18545762871059351
-0.17843208844048453
-0.16937457584669025
-0.1599098469929049
-0.1493119234272972
-0.13372531712592892
-0.10960340181667472
-0.07618420848122127
-0.035618213335061384
0.008744306122504469
0.05236429302109226
0.0879469281354736
0.10651316527829906
0.10787773447274275
-0.051290470641492884
-0.04458065434248055
-0.019441865831046845
0.02182650018991319
0.06904898911571748
0.11521964538385084
0.15641273224264127
0.18974170893773648
0.21306381000611896
0.2266112544228494
0.23314928848635977
0.23579187538869856
0.23542075377542954
0.23135791755541454
0.22335108782447946
0.21138977212066598
0.1955684739815586
0.17608868121577112
0.15325867227905315
0.1274905176074682
0.09929258570027154
0.06925764220561294
0.03804708492087924
0.006367978658473563
-0.025051913193872732
-0.05549089661940444
-0.08426357944629916
-0.11074454892553462
-0.13439212260909925
-0.15476590406456436
-0.1715372910317438
-0.18449674343871217
-0.19355304622946481
-0.19872986956357733
-0.200158133342306
-0.19806486038252719
-0.19276036617438688
-0.1846230746462978
-0.17395543506869943
-0.1602942237547854
-0.14169503800681482
-0.11563469520386102
-0.08088322775044743
-0.03917013383755759
0.005784496439845441
0.0501037727234064
0.08937345556712879
0.11752379532058711
0.12884349993357105
0.12593780910485294
-0.07834274374525858
-0.07585483975713384
-0.05722338377284701
-0.022415955496526155
0.021153732379220136
0.06754395426712746
0.11299163289507982
0.15421486941360793
0.18763019959856791
0.2109859344390512
0.2245757051091766
0.23000867111244291
0.22957725436617996
0.2250201465802703
0.21663283582801007
0.20441355505589182
0.18845925096959562
0.16896969022672545
0.1462494147700519
0.12070683850275246
0.09284921205208925
0.0632712925916127
0.03264059646210293
0.001673062411184886
-0.02889250506983315
-0.05832447400918424
-0.08593077750773373
-0.11108506319141334
-0.13325398491045454
-0.15201518517579843
-0.16706934330979523
-0.1782463406975328
-0.18550275072251907
-0.18891543570168787
-0.18866982928310946
-0.1850450278291269
-0.17839690937240774
-0.16914004950520486
-0.15710544990341507
-0.1396987900425054
-0.11405463106066087
-0.0795866202152489
-0.03769030547145497
0.007739288577075524
0.05210882680441375
0.0916773506486215
0.12275386143552984
0.14104810892204342
0.14433502442242005
0.1374528738845872
-0.10021106886190233
-0.10170714865637939
-0.09032981928249537
-0.0642748771523951
-0.02807700654148133
0.01385543900983982
0.058452937820177193
0.10265617460395557
0.14216691125447925
0.17270554475733008
0.19198957109357281
0.19974371378049774
0.1993333784104663
0.19472546570988888
0.18672863599929093
0.17535257409224597
0.16069518573941394
0.14294763195334068
0.12239735492666931
0.09942808206753906
0.07451546505605003
0.04821685989839436
0.021156273105986716
-0.005998615366049221
-0.03256203164612816
-0.057859285561032384
-0.08125814724653822
-0.10219507315578402
-0.12020069769585238
-0.1349175236107516
-0.14611084821710157
-0.15367370568003147
-0.15762288187511336
-0.1580907087444257
-0.1553114164706162
-0.14960430761196106
-0.1413548583710093
-0.13099547650252805
-0.11795631503076104
-0.09793355346117037
-0.06763097160280336
-0.02856116133025094
0.015517682220403678
0.059280562151586697
0.09804044259547566
0.1287195361038247
0.1487263064855469
0.15580924759750464
0.15107780365263399
0.1408902191870453
-0.11538058346546609
-0.1203048979043912
-0.11615403626021692
-0.09997246197327223
-0.0736581671694618
-0.03996836033281517
-0.0010222753783093778
0.040780055854834636
0.08120619071128699
0.11482746713067153
0.13728548792019196
0.1464842584097383
0.14630228374924142
0.14226950876532912
0.13556168372873126
0.126197631433836
0.11427229205439934
0.09996151553355226
0.08352442870270363
0.06530258663585373
0.045714684019448414
0.025245964537708495
0.004433415678247986
-0.01615513262971298
-0.03594422090546672
-0.0543759755684152
-0.07093719877289677
-0.0851812197310524
-0.09674973146061547
-0.10538719003769126
-0.11094974486441715
-0.11340845979686376
-0.1128453207468587
-0.10944458578413108
-0.10347924261732795
-0.0952943787916035
-0.08528851558558098
-0.07389430333413236
-0.060298543338424715
-0.03927468884686458
-0.007672926649166073
0.031201067048454104
0.07197549715687199
0.1088504671338699
0.13774299354942784
0.156560080435081
0.16396115266722905
0.1597214804902151
0.14781006986189804
0.13531736404150344
-0.12291478163765183
-0.13046479830087024
-0.13282462495676736
-0.12645479364565623
-0.11107098989834277
-0.08793010675435406
-0.05821103969766461
-0.023485609008742504
0.012690225317630687
0.044765656992770894
0.0672698893672789
0.07680693255770296
0.07713424811721632
0.07435409133469731
0.069785742958675
0.06344998653857431
0.05543102170529332
0.045880094243965594
0.035016359318019
0.023123716643939946
0.010543813741826405
-0.0023354858247126298
-0.015094476145709872
-0.027299656327139248
-0.038522822464256916
-0.048360632716889076
-0.05645432136247518
-0.06250631388988631
-0.06629524124841679
-0.06768653542295264
-0.06663896727768474
-0.06320615182542587
-0.05753344261880078
-0.049850032352919585
-0.04045694344746862
-0.029712085987123982
-0.018012856081877738
-0.0057774765317775935
0.00784655448119641
0.028042773243465515
0.057273091375240615
0.09110946874054444
0.12359847883007455
0.14942697607700717
0.16562535849662668
0.17119927472141588
0.16601581995713954
0.15162624641477446
0.134126542864986
0.12057049848631743
-0.12247701754328019
-0.13168959908033018
-0.13931243910247945
-0.14167819312446925
-0.13685300744094628
-0.12488690501380822
-0.10619989207748781
-0.0816005227676496
-0.05364402089961853
-0.027122868596244482
-0.007507733658418089
0.00131187280610407
0.0024301227923757608
0.0014707696232400507
-0.00034434119087917766
-0.003002212418320481
-0.006440097192304505
-0.010542679732137168
-0.015143122547011513
-0.020027977410126154
-0.024945957429613978
-0.02961977037561435
-0.033759770756669076
-0.03707874967581952
-0.039306239031207175
-0.040202145001223294
-0.03956880705268389
-0.03726149373455805
-0.033196996390865645
-0.027360005367637337
-0.0198070118525553
-0.010666877584575551
-0.00013851109849533232
0.011515332088586233
0.023978362433177844
0.03689315191036264
0.04987712883885063
0.06253947239994039
0.07557258095997335
0.09319177257818503
0.11676962613231281
0.14160546657469109
0.16223099330146737
0.17460938978174867
0.17715694364400758
0.16991087138173053
0.1537409157369485
0.13152799803309845
0.11060649446707713
0.09734379692188073
-0.11430817406001692
-0.12414846087949413
-0.13543603820570219
-0.14470992863498347
-0.14891628741552052
-0.1472263880401292
-0.13953772082945795
-0.12608643107500558
-0.10837594254203933
-0.0898924128040093
-0.07517847953642433
-0.06780327862888609
-0.06567393172130218
-0.06448423217897611
-0.06330536622114526
-0.06214196539262544
-0.060963057614788436
-0.05969994008782668
-0.058247890454390674
-0.05647188465235199
-0.054215667374767545
-0.05131296299488762
-0.04759970475734655
-0.04292556562455982
-0.03716418699782687
-0.03022129726611213
-0.022040762245142762
-0.01260958308596625
-0.0019612771168279813
0.009821493914430565
0.02260526625955544
0.0362059881951302
0.050390557749661426
0.06488164770373106
0.07936578230259445
0.09350367129639418
0.10694409882354015
0.11933923999558213
0.13107279852309356
0.14470732470326975
0.16033730000132562
0.17381072633131442
0.18102082686075394
0.1796974164526932
0.16966303359789686
0.15177013539237907
0.1275645358434382
0.10068877191128216
0.07880838787613803
0.06715834299149719
-0.09918971572535254
-0.10863698720405435
-0.12181883956269597
-0.13570707945493238
-0.14662098391570155
-0.1531601665486142
-0.15491016126835563
-0.15174369139412916
-0.1442407753448915
-0.13440124672781256
-0.12530181302480162
-0.1196137093354381
-0.11635315973777206
-0.11298777031176885
-0.10899195463120158
-0.10439584764361642
-0.09920731415956746
-0.09341011634666503
-0.08696524849679824
-0.0798160780424493
-0.07189616279380263
-0.06313887519282228
-0.053487435630787214
-0.042903590690473274
-0.03137433412066672
-0.018916278173267704
-0.005577447873645039
0.008561621159138394
0.02338835008461028
0.03875800704418013
0.05449383673423036
0.07038791764348105
0.08620212619333312
0.10167162467274808
0.11651115789901759
0.13042296691262079
0.14310858293699188
0.1542817526052059
0.16395436878663483
0.17273407783169786
0.17949548077599084
0.18125124794346406
0.1757716153642182
0.16266742163486575
0.14294764703974655
0.11796129984484949
0.08954659801343613
0.06152444911425073
0.04110805588620938
0.03219907157123582
-0.0783988539952535
-0.08652935973181011
-0.09983341029848776
-0.11584849093984614
-0.1307126871993079
-0.1427277495023694
-0.1513268054851152
-0.156187429744043
-0.1571773448930223
-0.15492134477676694
-0.1509134566701887
-0.14669263028620488
-0.14230142572958168
-0.13702795869629786
-0.13076737314791045
-0.12358022587586862
-0.11551490214359107
-0.10660573196821205
-0.0968738525786951
-0.08633074180304243
-0.07498428557293353
-0.06284597964242548
-0.04993871516995253
-0.03630260083868327
-0.02199929684417233
-0.007113659991863788
0.008247140518998879
0.02395486174871437
0.039862899525109234
0.05580780384541883
0.07161044816771439
0.0870770660193964
0.10199984756021743
0.1161589854509486
0.12932706925700324
0.14127513730275892
0.15178117915868095
0.16064061471484825
0.1675262967851181
0.17122622871919824
0.16968656551333952
0.16137444175079269
0.14599849618823288
0.12478361009233291
0.09952362905104022
0.07171672220759095
0.04313819805747549
0.017298913739577274
0.00040273412887514317
-0.004955196023511026
-0.0536376309381571
-0.059704638267988275
-0.07152556842992386
-0.08725041965836552
-0.10321783442706992
-0.11767400624856293
-0.13001789203364977
-0.1398529456369399
-0.14656937795812772
-0.149713468021241
-0.14940706918732274
-0.14613199143565922
-0.14074682717404893
-0.13407746592559083
-0.12638157239549955
-0.11775155003957269
-0.10827181767705675
-0.0980173624970664
-0.08705411545316954
-0.07544162512913868
-0.06323744799759354
-0.050502490886586655
-0.037306273185208044
-0.023730838819858692
-0.009872699085276274
0.004157354138730599
0.01823682929291731
0.03223422696290378
0.04601282555596885
0.05943326093119495
0.07235442402597797
0.08463461564737133
0.09613097166921866
0.10670039149655229
0.11620165189757226
0.12449897122491847
0.13146762139288948
0.1370005787303371
0.14054617925262278
0.139586565152854
0.1315901411067281
0.11640163333236667
0.09529582998486195
0.07055545878714171
0.044284941131106495
0.0178398573165711
-0.007321404700411635
-0.028318958870172488
-0.04025355654446174
-0.04164619703452491
-0.02690911613828153
-0.030414669012201228
-0.039479471089741064
-0.05283222238206465
-0.06730244393896989
-0.08128384078984434
-0.09423186553658645
-0.10576431462030761
-0.1150285517704803
-0.1208850841784225
-0.12249222641299935
-0.11955270123704113
-0.1134569789155072
-0.10607795539261448
-0.09792754134222496
-0.08912717770841452
-0.07978773608473132
-0.07000887184845782
-0.05987995619542695
-0.049482734724576
-0.03889523383556148
-0.028195877353126952
-0.01746732045010008
-0.0067984145984935004
0.003715567052851901
0.013974745898509954
0.023878527307355114
0.03332935628840569
0.04223687054099174
0.05052037220362283
0.058109597833060155
0.06494454357565559
0.0709739796585337
0.07615436557004704
0.0804496645125575
0.08383243592654323
0.08628592037321049
0.0878072689937362
0.08777674325565744
0.0830970338620925
0.07124407093971476
0.053063332465956084
0.03073764329206706
0.006937531637890113
-0.016345896454219203
-0.03808013650124692
-0.05724394525217416
-0.07172790738587474
-0.07799981377171714
-0.0754274289896655
-0.00032704691332181206
-0.001074195351098609
-0.006583923512274015
-0.016066119144842565
-0.02701386965786773
-0.03811355518488089
-0.04894161644187483
-0.05919472086357151
-0.06799582131645351
-0.07393832745626129
-0.07570643030782995
-0.07259047033990204
-0.06619903901195019
-0.05887501977477098
-0.05125289441625054
-0.043475494397986605
-0.03566768523541929
-0.02793655269110104
-0.020373558478652635
-0.013058026277282437
-0.006061494529847597
0.0005484847307806619
0.006705351580105648
0.01234278292705815
0.017395981657460168
0.021804796068303368
0.02551841259973586
0.028499795453902174
0.030729562682270155
0.03220795731062257
0.03295473943297156
0.03300746793984003
0.032418551452205936
0.0312521517903641
0.029581746198863817
0.027488566415527854
0.025060882043890554
0.022393422331755328
0.01894824865174446
0.01176622238060732
-0.0012744619113219165
-0.018850084836995223
-0.03858462508645066
-0.05801376513539805
-0.07554850279157509
-0.09053819305801726
-0.10240237640623841
-0.10979333236197877
-0.11043923355790157
-0.10427900296572608
0.024120506670059175
0.026012519464598365
0.024299493158183378
0.019422065416177043
0.01317556341236223
0.006510250225231464
-0.0003034288599925201
-0.0070798880448377345
-0.013093968876160272
-0.017045740983824536
-0.01761037586750878
-0.014021530192843298
-0.007812011666090206
-0.001251733850678894
0.005030335468530864
0.010881150520829937
0.01617428456398674
0.020808989821122916
0.02470698394676691
0.027808021052582458
0.030065054776814534
0.03144029755269281
0.031902901852598954
0.0314288859959363
0.03000322798523817
0.027623844604970534
0.024306174197541944
0.02008771381842169
0.015031050966654635
0.009224657084926511
0.002781785070088517
-0.004163171291901772
-0.01145869609923621
-0.01894122238096787
-0.02643935945934108
-0.03377758629175868
-0.040779468113364345
-0.04727092622160816
-0.05360567982058743
-0.062082725422398705
-0.07419917917480655
-0.08863782578769484
-0.103392691503701
-0.11659295070770591
-0.12717811761076617
-0.13484736160936925
-0.13938985185975003
-0.1401142489341392
-0.135801505585071
-0.12672892664996102
0.044806980951501325
0.04893332277357963
0.05070954504750148
0.05035543176091056
0.04901240780224307
0.04727070091592983
0.04525009785885487
0.04301025429843434
0.04101952304417197
0.040212864198209165
0.04158259037368507
0.045689453274481893
0.0512929869141835
0.0565910914456327
0.06105686060551522
0.06453903835295396
0.06691920018370785
0.06811058750648658
0.06805441060177167
0.06671527379514063
0.06407653797437941
0.060136733859796294
0.05490775069013344
0.04841524084398338
0.04070090512917044
0.03182626813137528
0.021876397989539786
0.010963678203516554
-0.0007709340272366011
-0.013157990304629436
-0.0260025522839038
-0.039088521491411087
-0.05218424878058503
-0.0650483325578016
-0.07743537655674587
-0.0891009003432308
-0.09980629734996165
-0.1093238702601458
-0.11778690943311865
-0.12660304009424006
-0.13660693168377722
-0.1468036552288553
-0.15585242031124646
-0.16261675550254406
-0.16655080300751443
-0.16762157724207363
-0.16588514880584368
-0.1611540938111035
-0.15300946176358676
-0.14189505668764238
0.06064218193057141
0.06639086348349144
0.07090750125790855
0.07428905648052016
0.07714991626229438
0.07977840759025731
0.082173618560116
0.08428795764816564
0.08631414700297585
0.08872787525942563
0.0920404214146123
0.09649031262404603
0.10122469694282134
0.10507761174057846
0.10766968061812864
0.1088609436756839
0.10854649889806137
0.10665517120697075
0.10314646482258052
0.0980067264349144
0.09124565992797262
0.08289359903672738
0.07300065521121438
0.061637176778955936
0.04889568731129014
0.03489358994050643
0.0197756410311085
0.003715783281788978
-0.013082958707362043
-0.030390498012717808
-0.04795293472910043
-0.06549853315155328
-0.0827433074723515
-0.09939752110516506
-0.11517187606847343
-0.1297831363390947
-0.14296010377583568
-0.15444946196986495
-0.16419081883280975
-0.17275129811974144
-0.180412794090934
-0.18660518434805834
-0.19067374569552134
-0.19214239275852893
-0.19087169056029754
-0.18700088386668154
-0.18074899445154152
-0.1722675283122828
-0.16167668001120142
-0.14947447113681175
0.07114639187431819
0.0778082312134216
0.08405872669469834
0.08993086655239127
0.09566711623452642
0.10134121941486693
0.10687257564138865
0.11214177619977966
0.11712133533923265
0.12189268862715695
0.12653553024830402
0.1310000484699943
0.1347897836521348
0.13731430198691771
0.1383340478824133
0.13772611828680525
0.13540099398975614
0.13130152506621315
0.1254008904781048
0.11770026450398126
0.10822683085214986
0.09703248213570953
0.08419358336780111
0.06981154114350849
0.054014061586973035
0.03695617533621794
0.018821336823397133
-0.0001787220706912422
-0.019805379199858607
-0.039796148221767046
-0.05986855318740065
-0.07972638081281568
-0.09906481824460206
-0.11757727291168654
-0.1349614859732085
-0.15092536743990728
-0.16519297952754264
-0.17751092460563647
-0.18769485567554192
-0.19572426452129382
-0.20152354546993662
-0.20487328651572503
-0.20562319302328028
-0.20374744333966208
-0.1993577051264789
-0.1926774779259225
-0.18399960356936698
-0.17365781451778362
-0.1620650603262423
-0.14970616014280733
0.07641997951905068
0.08330450586953256
0.0902348764598012
0.09720842806373065
0.10424967839497551
0.1113085868006412
0.11826461908284705
0.12496424508392642
0.13125555903372074
0.13698957258635194
0.14199667860072912
0.14607284232473586
0.14896249172006296
0.15044045520000046
0.15036343321365825
0.14862836037284563
0.14516177618398804
0.1399189488776565
0.13288303064657506
0.12406406895713543
0.11349847086151807
0.10124885143934689
0.08740420940185187
0.07208015804783022
0.05541906068638067
0.037590229139613046
0.018789117827671085
-0.0007638901723467563
-0.020825392048742262
-0.04113247007052324
-0.061406299233624256
-0.08135750482705383
-0.10069121024428862
-0.11911311327467203
-0.13633536610746336
-0.1520822436544568
-0.16609616639236863
-0.17814380093932522
-0.18800211007936757
-0.19539846090452812
-0.20012017352448627
-0.2021323997756786
-0.2015198207684004
-0.19844805925114506
-0.19312062890596982
-0.18577350177349228
-0.17670295588535992
-0.16628781154396374
-0.15501554398817238
-0.1433167982876544
0.07703514581314237
0.08356707336196857
0.09025954707508697
0.09709018129581222
0.10400002225140474
0.11089411636724504
0.11764299012284513
0.12408968641096395
0.1300540876608616
0.13533674640142318
0.1397284647227368
0.14302764716852714
0.14508539388198344
0.14579876796341365
0.14506890742337814
0.1428148325458517
0.1389803455560735
0.13353365757506547
0.12646704931094915
0.11779684926874587
0.10756376862861947
0.09583308210897533
0.08269471498856747
0.06826291286658112
0.05267554812064975
0.03609305281060456
0.018697199848954155
0.0006891599191703325
-0.017711880042133706
-0.03627168018170708
-0.05474345597615054
-0.07287176556622656
-0.09039691798884919
-0.10705995980949626
-0.12260818728348406
-0.136800858058885
-0.14941489838238986
-0.16025063221330474
-0.1691198423534658
-0.1757997476658261
-0.18013105670683477
-0.1821020193570057
-0.18178651114167904
-0.17931627109372805
-0.17485494140220886
-0.16859745508886115
-0.16079101662703976
-0.15174831128626334
-0.1418514698954084
-0.1314458252873222
)
;

boundaryField
{
    "(inlet|outlet)"
    {
        type            zeroGradient;
    }
        "(front|back)"
        {
            type            empty;
        }
    "(top|hills)"
    {
     	type            zeroGradient;
    }
}

