/*--------------------------------*- C++ -*----------------------------------*\
| =========                 |                                                 |
| \\      /  F ield         | OpenFOAM: The Open Source CFD Toolbox           |
|  \\    /   O peration     | Version:  v1806                                 |
|   \\  /    A nd           | Web:      www.OpenFOAM.com                      |
|    \\/     M anipulation  |                                                 |
\*---------------------------------------------------------------------------*/
FoamFile
{
version     2.0;
format      ascii;
class       volScalarField;
location    "0";
object      nutCoeffs5;
}
// * * * * * * * * * * * * * * * * * * * * * * * * * * * * * * * * * * * * * //
dimensions      [0 0 0 0 0 0 0];

internalField   nonuniform List<scalar> 
1000
(
0.12792297870114264
0.12519590457168447
0.11286170039650228
0.0952096645914813
0.07754868855958517
0.06236633002204253
0.05047243871567696
0.041863185865124615
0.03600962576746338
0.032100585635538345
0.029535048585665587
0.028014698424279345
0.027046760702273437
0.026299445330784498
0.025820543716798264
0.02570430020031049
0.026022619753193567
0.026821631557826964
0.028118958352936044
0.029901817504561543
0.03212540820345511
0.03471228236211122
0.03755229676854278
0.040504763808055046
0.04340258989082638
0.04605952167006056
0.04828077383991063
0.049876240398072196
0.050675803104515464
0.05054488987192195
0.049398191865719705
0.04720958783026685
0.044016696450452475
0.03991905124373104
0.03506981016471631
0.02966244256133709
0.02391361748429414
0.018045178717059383
0.012183687413069091
0.005834767369883999
-0.002334628671790017
-0.01377602896954475
-0.029499087908898457
-0.04928840941404232
-0.07189435279736915
-0.0957590938489653
-0.11882385283242411
-0.13787660694127946
-0.148675590673882
-0.14958660502664722
0.142239096353208
0.13944476530644542
0.12738250417505279
0.10976880618102984
0.09123084291617199
0.07413975755798122
0.05965667558680672
0.04838351684605494
0.040392588652044814
0.035089022161481055
0.031554140201519816
0.02893480999157384
0.026571442110783234
0.02441632464741951
0.022667908187613935
0.02148285714503912
0.020980894200827525
0.021238805419387607
0.022286884150334484
0.024107693509226574
0.026636549271274304
0.029763299105545676
0.033335229837595466
0.03716170035923461
0.041020520927158875
0.0446669527451887
0.04784598004156147
0.05030710184788042
0.05182204547617675
0.05220285471212227
0.05131911816931305
0.04911152652970425
0.04559995888673407
0.04088423474722536
0.03513692211727
0.028589519285771067
0.021512808357243698
0.014194508693197315
0.00672214171880618
-0.0018580800400258691
-0.01320411220452711
-0.02838882942529959
-0.047602608161520024
-0.06971172580945156
-0.09293019230585864
-0.11560202564242902
-0.13596682387793202
-0.1517603180344604
-0.16037101655402322
-0.16085843797716104
0.15548335584142
0.15264540517781766
0.1410275469816703
0.12383862904361295
0.10500326568757036
0.08660206735947426
0.0698860238117199
0.055820834630188235
0.044995977182653496
0.037222071907430765
0.03156665155875194
0.026772845169482154
0.02199380313502309
0.01744876265469082
0.01350922096197065
0.010422337259043934
0.008381662602554792
0.007517107309498081
0.00788953936121841
0.00948888356319237
0.012235333745581967
0.015982905393073687
0.02052461680991216
0.025600032092485916
0.030904828277213695
0.03610315104966542
0.040843818455263414
0.04477941783061987
0.04758856648045967
0.04899934315919916
0.048811468518094786
0.04691486522625566
0.04330159113152397
0.038069175583546895
0.031414223176718895
0.02361721626820552
0.015019476045258674
0.005995678929272298
-0.0033601089511817693
-0.014324893704105852
-0.028641532412538105
-0.04673898023597801
-0.06792340217012435
-0.09044907353156782
-0.11245284444700022
-0.1325316657808305
-0.1494391973932678
-0.16188945777586503
-0.16862424099438353
-0.16903586489600128
0.16735824958898846
0.16450763504684401
0.15343481399416653
0.13687871582239364
0.11811361554141983
0.09889061339928594
0.08039795249241911
0.06373745138704963
0.04979629535040729
0.03875192557795379
0.029860184804560975
0.0217294196510868
0.01344854578236134
0.005497179192485943
-0.0015667924283527645
-0.007376511355475331
-0.011637995829448487
-0.01414504599043046
-0.0147884381684552
-0.013559978581723956
-0.010552079646513418
-0.005953455218959307
-4.1959543808377556e-05
0.0068264177016237266
0.0142314686031585
0.02170701076953249
0.028763828367950165
0.03491544681549874
0.03970867558821391
0.04275406841706082
0.043755059757062946
0.042532443378740944
0.039040468405348784
0.033372563183535445
0.02575504180722921
0.016529721001559698
0.006126736383356496
-0.004969190596241879
-0.016561004973133373
-0.02989507597469259
-0.04647173809075989
-0.06606317785658432
-0.08736867547705449
-0.10853705908429463
-0.1280359699866456
-0.1448799085470038
-0.15833955472877723
-0.167938731677179
-0.17337421540113318
-0.17407326122210523
0.17762134931019674
0.17480863780829017
0.1643613310161344
0.14854517284702998
0.1300360346521772
0.11029078123945328
0.09038971715503125
0.07143286418196268
0.05439571922476626
0.03966446779277478
0.02673738870064815
0.014343118141353882
0.0017137765894359276
-0.010397805049780825
-0.02124402089776168
-0.030315954914685663
-0.037199082099077976
-0.04159450020291988
-0.04333318202846984
-0.042383477535453795
-0.03885279048283687
-0.03298316426959934
-0.025142019625446627
-0.015807022461214272
-0.00554591003892704
0.005009186477421487
0.015193807454013298
0.024346408121229395
0.03184823453864008
0.03716305911551402
0.03987414360679852
0.03971532839755693
0.03659137777264037
0.03058630787859216
0.021957016962565537
0.011113810610727866
-0.001411616292113064
-0.015005988271148038
-0.02924844674630398
-0.04488049661802941
-0.0628444874929532
-0.08250432444989789
-0.10245332741011899
-0.12123010233324993
-0.13784601156608547
-0.15169794306149006
-0.1624293281173433
-0.17010653832820802
-0.17496398511824246
-0.17626880352948807
0.18605100222346246
0.18334546724356196
0.17361458733321428
0.15862801392020442
0.14047944201919874
0.12037331841218935
0.09929568312259246
0.0782966616809841
0.058316962582549724
0.039804372002759
0.022471778760726854
0.005347716462955413
-0.011998044909208723
-0.02853593000631025
-0.04333981721427085
-0.05574956649727854
-0.06522280979224498
-0.07136300225878366
-0.07393945916744736
-0.07289952220508353
-0.06837239531952803
-0.06066483172770276
-0.050249402129899264
-0.03774431060542472
-0.023885960780194976
-0.009494576055778858
0.004568113567444817
0.01744376860868468
0.0283279474967008
0.036518691993354266
0.04146155169510967
0.04278731657787662
0.0403371296349669
0.034173693051941186
0.024575972977120445
0.012018177492522115
-0.0028655531363059703
-0.019326832394239497
-0.03662135767508765
-0.05456624605304326
-0.07333639046005282
-0.09226135962823592
-0.11032295025631761
-0.12674785016904122
-0.14108148504553858
-0.15294738492004567
-0.16216943529087036
-0.1690805043971997
-0.1740877349141764
-0.1762174938476204
0.19244161373218466
0.18991710683651172
0.18099969074075226
0.16695518606098772
0.14928756154137196
0.12895884853226156
0.10687787937946831
0.08404386827181995
0.06132658497599747
0.03916848804895644
0.01747257234783648
-0.004322868867775753
-0.026196404419599043
-0.046878306847831154
-0.06529265432605443
-0.08063521621130033
-0.0922430358874292
-0.09962940931518663
-0.10250991899833828
-0.1008188163320088
-0.09471524223622681
-0.08457857443518087
-0.07099375191024272
-0.05472563529536834
-0.03668412505822352
-0.017881011148725104
0.0006218478619002459
0.017766918915279078
0.03256030008239714
0.044128518442381366
0.0517708475271938
0.05500312285605936
0.05358783347989334
0.04754930509273988
0.03717080060610182
0.02297387976637852
0.00568169721172339
-0.013831138433809037
-0.034459109449182124
-0.05489755211972476
-0.0745026115125175
-0.09286764895557045
-0.10964026635281132
-0.12476538396407504
-0.1381618281507105
-0.14950623114243433
-0.15863856384025174
-0.16592766755212093
-0.17168334539809338
-0.17471689404839413
0.19662899346113186
0.19434517769191698
0.18631445828849616
0.17332972719891926
0.15631101197139424
0.13596261898147285
0.11310810871330278
0.08869658568144871
0.06353519046190394
0.03806843310685557
0.012405465780014563
-0.013542482313796813
-0.03928142034173464
-0.06337878054718779
-0.08465115880091066
-0.10217199275813052
-0.11517800046895715
-0.12311000992544896
-0.12564423505114733
-0.12271229689817961
-0.11450899209251411
-0.10148726305691327
-0.08434041802643273
-0.06397159104893635
-0.04145207018000734
-0.017970772506074737
0.005225830833522267
0.02689535013145741
0.04586637501550234
0.0611015019373791
0.0717555972200181
0.07722512793492523
0.07718323860261345
0.07159963879074177
0.060741164442842825
0.04515391708915383
0.025626646419548635
0.0031389855076906885
-0.020884744170565236
-0.0441194932863528
-0.06520305391558702
-0.08407326165584311
-0.10102024554018246
-0.11651673524628688
-0.13064277473379757
-0.14300245220709887
-0.15334600058588077
-0.16191796193898855
-0.16877782225373203
-0.17263135527990242
0.19852505817291932
0.19651384257104312
0.18938957511085927
0.1775382433213702
0.16134324090010851
0.14124276379648887
0.11795154750100148
0.09235425427550664
0.065205314433182
0.03698406476282889
0.0080404297740541
-0.02122095924686624
-0.04987971434082834
-0.07642552024405135
-0.09961215312925435
-0.11842226781052058
-0.13202036185195148
-0.13979817268828887
-0.14140951231459067
-0.1367927732022781
-0.1261799522899816
-0.11009086833966378
-0.0893133081944613
-0.0648682275129669
-0.037963636084792585
-0.009937804885565723
0.017806310549753433
0.04386897167350116
0.0669252866481683
0.08579352843620433
0.09949811549279429
0.1073231725892601
0.10885228859861704
0.10399265192926856
0.09297995078610012
0.0763636034923879
0.054972058728782365
0.02986070865250712
0.002664803936890593
-0.02362809359289496
-0.04714348301754564
-0.06801668163240872
-0.08691230518960878
-0.10452357695053169
-0.12089777829025776
-0.13550459358953004
-0.14795801464072458
-0.1582977015107653
-0.16630157276590854
-0.17073096829533493
0.19813199947804208
0.19639541716008357
0.19013692684101274
0.17941364634269225
0.16415874614094422
0.14456622205123126
0.12122924534375312
0.09495157753241297
0.06643351132734068
0.036204659974264884
0.004863253673731678
-0.026729481189867822
-0.05730401813615257
-0.08532735141646271
-0.10952511932899638
-0.12882307408043012
-0.1423431875329397
-0.1494514610689017
-0.14979472459620283
-0.14332487886656278
-0.1303083501227948
-0.1113200837108751
-0.08722231419934809
-0.059127598169643046
-0.028349068809367602
0.0036599695706461357
0.03537575660860705
0.0652762380895298
0.0919167730307189
0.11400211810303633
0.13045229524403523
0.14045991076685074
0.1435325204987906
0.13952015759056183
0.12862317451842506
0.11138054177894711
0.08863725564022076
0.0614934277518801
0.03165411010324967
0.002284451731418929
-0.024481147792246045
-0.048696239075452265
-0.07101823438628531
-0.09203692328684833
-0.11162418115548525
-0.1291075318333877
-0.14396983786407638
-0.1560445233083088
-0.16490408452776598
-0.16953440766906147
0.19551966639131993
0.19403862393122576
0.18856424520203696
0.1788924632037124
0.16460613466200397
0.14570323922645553
0.1226654214016482
0.09621399190951924
0.06699471062986732
0.03557933970042542
0.002774766924496655
-0.030196904164085075
-0.06180341288244109
-0.09050427852730902
-0.11501785076098105
-0.13424296658328289
-0.14728438711412126
-0.15350134636823212
-0.1525451725684613
-0.14438416379469862
-0.12931356597708576
-0.10794952074233541
-0.08120730705164904
-0.05026313035034704
-0.016502538665822707
0.01854259343605332
0.05326669476296037
0.08606563999159278
0.11541552135298477
0.1399464826056622
0.15851107895533503
0.17024233110551557
0.17459748793203714
0.1713862178268252
0.16078003347772993
0.14330157474907956
0.11979430083840478
0.09137285266547591
0.0596795784078095
0.027597092319199122
-0.002718653989595843
-0.030956829898435817
-0.057407052612641486
-0.0822967087262996
-0.10524656586001649
-0.1254757298035338
-0.1423821697230764
-0.15565802177677895
-0.16481447332241864
-0.1691956672006163
0.1907753112579639
0.1895227064453826
0.18474110518343728
0.1760148739436566
0.1626656474372555
0.14454854394823274
0.12205628170311042
0.09583974974365334
0.06650025526980684
0.03463949588564454
0.0012083020734573108
-0.03233456981031691
-0.06428224844221606
-0.09308782924661554
-0.11747570886224261
-0.13634202111607824
-0.14879344826179267
-0.15419576585354403
-0.1522115305741932
-0.14282515106953977
-0.12635302953084648
-0.10343783695867137
-0.07502637044313948
-0.04233099780541894
-0.006776689489805944
0.03006326074426828
0.06654228186735309
0.10101711742373089
0.1319282525351383
0.1578753977282795
0.17768475233555614
0.1904673947992054
0.19566123908877686
0.19305830772245736
0.18281312556031315
0.165432192249784
0.14174447737587012
0.11285401862612437
0.08024735631104171
0.04621838816158246
0.012770171084747145
-0.019239209688675107
-0.04949966139774733
-0.07774127736042609
-0.10333320401475672
-0.12544769750961898
-0.14346754789088542
-0.1570456285473932
-0.16579153749949593
-0.16947179313961605
0.1839556577476228
0.18290756299383515
0.1787411281184814
0.17086844816927277
0.1584213512765433
0.14115449414910305
0.11939013013223614
0.09371983241640762
0.06471424656683904
0.03300108266053412
-0.000380111637762735
-0.033843312170659015
-0.06559322272319909
-0.09409478269592263
-0.11809557134472955
-0.1365091128945949
-0.14845970182884918
-0.15332973644625034
-0.15079708821653837
-0.1408598695587606
-0.12384660213868999
-0.10041033036268286
-0.07150674384752102
-0.03835517566112182
-0.002385461965277772
0.034827139977553614
0.07163735418328346
0.10640730147238193
0.13758677938206829
0.16378757024923227
0.1838498276510868
0.1968976312353196
0.2023785747849165
0.20008817535055032
0.19017629584937493
0.17313543504766826
0.1497719144958456
0.12116014984680525
0.08859537981855545
0.05369331118226123
0.018226975223532046
-0.01637426041293614
-0.04915704372406544
-0.07936941162593762
-0.10619416421696044
-0.1288269025957088
-0.14670620021350228
-0.15954779298570476
-0.16718366833036657
-0.16978700835536023
0.17507190750130913
0.17421379879368712
0.17060449064376554
0.16352559373500308
0.15198262883614627
0.13566077358185355
0.11482015444916988
0.08999411205511174
0.061728448847852314
0.030675599452136798
-0.0020712192964840123
-0.0348731191542404
-0.06592571636794275
-0.09374956923383153
-0.11714082326744342
-0.1350517606653964
-0.1466407313277226
-0.1513177672688199
-0.14878066080511032
-0.13903874582025502
-0.1224224188547884
-0.09957708707695415
-0.07144131378157245
-0.03920866812270664
-0.0042748298491987555
0.0318258907550962
0.06749479253670718
0.10114455883380692
0.1312772840934614
0.15655615089349575
0.1758693247457017
0.1883818978136564
0.19357264355073175
0.19125540922841303
0.1815832660823092
0.16503589269933053
0.14239044596016678
0.11467832791622674
0.08301996988729034
0.048465430902343336
0.012569841201298648
-0.022797414955006458
-0.05618039624373879
-0.08648527209268378
-0.11281371652551801
-0.13444371751143472
-0.1509218453285046
-0.1620979528799641
-0.16808366432887098
-0.16937496149865686
0.16412140104003878
0.16344924067536432
0.16035046041131695
0.15402942468848313
0.14343378265461923
0.12820782393693766
0.10855337377098427
0.08493975897697685
0.05788325221570267
0.02805244530191793
-0.003434410778269283
-0.034939381614146614
-0.06471965327246237
-0.09140602444907216
-0.11387481310320013
-0.13114190100359957
-0.14241961725482172
-0.14715965815334725
-0.14508651111057022
-0.13621899183971645
-0.12087859998962476
-0.09968297466001878
-0.07352464532664316
-0.04353431582572529
-0.01103121760247985
0.02253755565865856
0.05566679450699161
0.0868644668624855
0.11472544586271931
0.1379991345997529
0.15564906061486605
0.16690188269555037
0.1712809017564175
0.1686255623045475
0.15909411333479404
0.14315036849854676
0.12153553685321614
0.09522640105174679
0.06521303102569084
0.032206669117110114
-0.002391737669993603
-0.03650593153782038
-0.06843120383819974
-0.0969358028574535
-0.12114912381697789
-0.14046843573771958
-0.15457132445266888
-0.1634660081442678
-0.16752743328991002
-0.1674512835298918
0.15115388681735015
0.1506718486395631
0.14803667689420003
0.1424416984517571
0.1328568246321975
0.11891947352018503
0.10078038741310216
0.07884083063735416
0.053578424947704026
0.025658676231333805
-0.0038141766716980265
-0.033262744639446125
-0.061073344679214533
-0.0860335839630111
-0.10713075016170687
-0.12347029069997494
-0.134339462643887
-0.13924605260947936
-0.13794767014641113
-0.13047033996064525
-0.11711489978621803
-0.09845011871420156
-0.07529267665980112
-0.04867376382900871
-0.019794156104128827
0.010030452251779733
0.03943215369662287
0.0670554835947624
0.0916243132098261
0.11200347510118214
0.12725445217153564
0.13667996451970474
0.1398560875754018
0.13665005261283125
0.12722260858634094
0.11201527214271176
0.0917233244101643
0.06725643093900475
0.039518777138600546
0.009112537844632089
-0.022655206294016475
-0.053755273997260586
-0.08250540745847693
-0.10773133062260715
-0.12867352769035
-0.1448595082368571
-0.15608965018014442
-0.16250841546885691
-0.1646779095673324
-0.16336355939467812
0.13634535637724227
0.1360597663895424
0.1338327732763483
0.1289204415731329
0.12040310363759456
0.10795243843673506
0.09168222461224372
0.07192864827483664
0.049123597057130264
0.023901298469654414
-0.002704547927167953
-0.029257668468739315
-0.0543406977468451
-0.07692444361058258
-0.09612893834870974
-0.111170290167049
-0.12142608468165503
-0.12646880935942884
-0.1260906493727624
-0.12031881957108172
-0.10942001945121617
-0.0938938164570781
-0.07445485278489573
-0.052004064861041206
-0.027590101138764873
-0.0023623797682786737
0.022482370808570885
0.04575686289938127
0.0663412011127177
0.08323871365235852
0.09562521177517007
0.10289096257449325
0.10467019161597665
0.10085815442402028
0.09161377208947884
0.07734796446323797
0.058698375337056956
0.03649279756752844
0.011573827370598144
-0.015416095451509753
-0.04324707353419811
-0.07014476147556045
-0.09465845678143428
-0.11580313994490206
-0.13297075719656432
-0.14580426008135647
-0.1541945013042442
-0.15836544631329882
-0.15895531083270298
-0.15668772602956552
0.12004976190960122
0.11995989020743338
0.11807381369195143
0.11378107325261112
0.10635729766663835
0.09555013671663204
0.08145596970783067
0.06435568790703698
0.04463172411188968
0.022854680104156724
-8.061065535460879e-05
-0.02297156237207706
-0.04465623374458158
-0.06429117594320383
-0.08113666602433832
-0.09452981297658536
-0.10394327044492183
-0.10901323706432459
-0.10956045663524801
-0.10560271530492908
-0.09735856968920982
-0.08524167399575326
-0.0698462693048105
-0.05192373238591609
-0.03235114051149796
-0.012092719671786305
0.007844209803140068
0.026457119023359746
0.04279756648170741
0.05601963335712382
0.06542379206302332
0.07049457043818384
0.07092759841642103
0.06664570348917644
0.057801502125660306
0.04476686403015349
0.02810995087788626
0.008561585171006298
-0.013099688565773985
-0.03615651435502348
-0.05949182247159782
-0.08170959823229988
-0.10169213382925708
-0.1186900237127127
-0.13223847873526506
-0.14206424474655596
-0.14810335357478616
-0.1505867643606672
-0.15010893305828266
-0.1472728716718046
0.1028094677344132
0.10289787448174244
0.10127428560618529
0.09751693288354296
0.09116157185767809
0.08206448493173119
0.07032278001873106
0.056174083078819124
0.03995039529832668
0.022130298941595572
0.0034116225102126165
-0.015310762988674584
-0.033166290395459395
-0.049483111753823604
-0.06365675901714127
-0.07514422573867739
-0.08350804832730699
-0.08844026108320388
-0.08978001056337934
-0.08752479983062882
-0.08183452966825613
-0.0730278897779706
-0.061571622596950495
-0.04806253318890757
-0.03320294546036559
-0.01777026582427732
-0.0025812626850883727
0.011547256898087803
0.023839453096917415
0.03360190415998997
0.04026137380173743
0.0433977489449817
0.042768061453457205
0.03832061899190053
0.03019707517426869
0.01872294931438999
0.004386697914842024
-0.01219038646253236
-0.030317034854893017
-0.04926486338405434
-0.06810173306059557
-0.08583339654392867
-0.10166921049920154
-0.11506147859671922
-0.12564773792042783
-0.1332013291374493
-0.1376607665734787
-0.13919493061940158
-0.13824752707648416
-0.1352560282035949
0.08532049613801419
0.08554686776043358
0.08410190032064171
0.08078076144273774
0.07540863419012665
0.06796470753882186
0.05855629479532038
0.0473866209094544
0.03473837877781827
0.020985520108206746
0.006607573233672266
-0.007827925783316115
-0.021744524892736847
-0.03462631694564043
-0.045993478264660784
-0.055414185107225185
-0.06253229987973481
-0.06708726243288188
-0.06892997772058507
-0.06803337836628548
-0.06449744837777946
-0.05854828270750334
-0.05053104977948229
-0.04089718910366192
-0.030185827955078202
-0.01900003538238361
-0.007978735146323641
0.0022354407808181024
0.011029585059045758
0.017855129156686154
0.02225940557995553
0.023913319582161082
0.022631663603048725
0.018384440716991236
0.011298245523396436
0.0016471266896341606
-0.010165885641358972
-0.023634906300428467
-0.03818500918424706
-0.05318905763212724
-0.06796845469734342
-0.08187503979600667
-0.09436521466905845
-0.10501825038479637
-0.1135236368728127
-0.11967315392395943
-0.12337857773919758
-0.1246963476187464
-0.12383986143813423
-0.12106193877732987
)
;

boundaryField
{
    "(inlet|outlet)"
    {
        type            zeroGradient;
    }
        "(front|back)"
        {
            type            empty;
        }
    "(top|hills)"
    {
     	type            zeroGradient;
    }
}

