/*--------------------------------*- C++ -*----------------------------------*\
| =========                 |                                                 |
| \\      /  F ield         | OpenFOAM: The Open Source CFD Toolbox           |
|  \\    /   O peration     | Version:  v1806                                 |
|   \\  /    A nd           | Web:      www.OpenFOAM.com                      |
|    \\/     M anipulation  |                                                 |
\*---------------------------------------------------------------------------*/
FoamFile
{
version     2.0;
format      ascii;
class       volScalarField;
location    "0";
object      nutCoeffs30;
}
// * * * * * * * * * * * * * * * * * * * * * * * * * * * * * * * * * * * * * //
dimensions      [0 0 0 0 0 0 0];

internalField   nonuniform List<scalar> 
1000
(
0.021932043960591143
0.023418867797216303
0.02134399705652825
0.01679942592056805
0.01198578855142843
0.007874199191370125
0.004700947411361395
0.002489140848889426
0.001150049359009413
0.0004555734427875312
0.00014199066546389117
2.2256175486477815e-05
3.57854261375471e-06
8.18148853346103e-05
0.00028247744562249317
0.0006247401948336807
0.0011147004286312773
0.0017416680208430133
0.002476585274735681
0.0032732801221951597
0.004072631151409986
0.004809195309170209
0.005419167717318836
0.0058484495759449535
0.006059361885367588
0.006035018673286942
0.005780837697179944
0.005323101791462299
0.004705043753533556
0.003981200016362682
0.003210939349701137
0.002451942840385358
0.001754538018703145
0.0011572390065323417
0.0006839861706606099
0.00034327781771259063
0.00012910250509013765
2.355460703320545e-05
1.1649312270923708e-06
6.137865299357861e-05
0.0003088070556969692
0.0009971695346475279
0.0025116730148079143
0.005196081370158961
0.009181117741858454
0.014404022352586041
0.020483436365159143
0.026123410423944386
0.028618189704182388
0.026719736048172127
0.02662852557649505
0.028776219250288382
0.027218055791357817
0.02271400140259304
0.017414198713450055
0.01245049507291998
0.008226270481956422
0.004933526187961622
0.002664885416085747
0.0013039470355248007
0.0005754800511365789
0.00021384186102656695
3.674327705870372e-05
1.054831713290301e-05
0.0001795278146446328
0.0005821825685189993
0.0012341412834426676
0.0021222654484078177
0.0032025685138378232
0.004402668495409338
0.005628684518518019
0.006775682267344451
0.007740021271612539
0.00843194659896619
0.008786376334176211
0.00877060049049174
0.008387850250195051
0.0076764500769041346
0.006704783537588965
0.005562848173126893
0.004351638998673569
0.0031714601836198434
0.00211107383660806
0.0012385320089999187
0.0005950844341531983
0.00019276611551799104
1.5800858840482298e-05
2.5521615074373847e-05
0.00017789252248882916
0.0005212888993838045
0.0012957438655101217
0.0028737043500204674
0.005650121591581419
0.009786913362834476
0.015128561671355591
0.021362918163681584
0.027916909824810265
0.033375112796222385
0.035169117501748455
0.03245275192551137
0.031137205601142987
0.03402885368484517
0.03329961165334413
0.02928833590760468
0.02390509711596534
0.01835603369991555
0.013191142338606318
0.008763446171753592
0.005364586053396985
0.0030610339585177442
0.0016531006185593231
0.0008412519070828233
0.0003338177724620646
4.326536068406866e-05
3.8168299541550626e-05
0.00038604816068258107
0.0011180850991007612
0.0022206157620906167
0.0036326257350946193
0.005249902942162441
0.006935481356264758
0.008534918090095397
0.009894254979662951
0.01087843285624359
0.011387510019235178
0.011368780702381308
0.010823313845673099
0.009805980050616888
0.008418995501611765
0.006799675141101241
0.005104035308451936
0.003488099177900658
0.0020897632250066415
0.0010133167075794885
0.0003188202936913906
1.7774114236215112e-05
7.528038752300373e-05
0.0004182825830502043
0.0009784780261282966
0.0018926894624607764
0.0035616512451726707
0.006398505205454394
0.010667251499746507
0.016242798393276286
0.022687926533305567
0.029510228988846844
0.03601915393829589
0.040776920406727535
0.04152764448610311
0.03790543909336832
0.035057027329228205
0.03872511481193166
0.039097090162512484
0.03606434993990638
0.03111452356190848
0.02539900460288291
0.019566803694406127
0.014115294070177357
0.009530399470350791
0.006093354174630694
0.00375275146643729
0.0022440819313229005
0.0011789216896377884
0.0004046513768295815
2.1478084104654434e-05
0.00013632459315824632
0.0008027857492759558
0.002009657371352882
0.0036779879073029773
0.005667295951026131
0.00779021437650717
0.009833794477963814
0.011584416268820842
0.012853685446937883
0.013501501288988098
0.013453814290170243
0.01271250670766802
0.011356064554158017
0.00953061353538542
0.007432306343446467
0.005283324046188098
0.0033044379930147094
0.0016883569976117237
0.0005770565556841784
4.643087365863404e-05
0.00010016498495458728
0.0006731722798948625
0.0016438601428174987
0.0029117459535194182
0.00471896158627906
0.007599844763472258
0.01189544692843333
0.01763309454665908
0.02438894293970245
0.031509493682269976
0.0383841190008777
0.04425641505011905
0.047777926051000445
0.047191776489731885
0.04264144215333612
0.03801825838199017
0.0424252394604633
0.044066221369406654
0.042434673618871904
0.03847235255963468
0.03312994481355923
0.027066737700770598
0.020878299577498174
0.015219405652599528
0.010591277266125933
0.007137143668747893
0.0046943326894520986
0.0028225054322382525
0.0013188603589624765
0.0003262658133201154
1.252772412881034e-06
0.0004271043773042637
0.0015989133982895235
0.0034198971286087056
0.005709688856156914
0.008223802571423699
0.010681990943352088
0.012801922504670037
0.014334352574486928
0.01509487801639291
0.014988403412079783
0.014022617175414608
0.012308453566120219
0.010046944018751286
0.007504149627791954
0.004977555175501229
0.0027583554435731033
0.001095574022139717
0.00016625971579584104
5.5941630702300755e-05
0.0007515054998665796
0.0021466274952312973
0.004058589393366082
0.006341879300189045
0.009318669904455623
0.0135824311358615
0.01930975757208921
0.026260045031004473
0.033760813292252695
0.0410090727566136
0.04731985482212986
0.051938556548361464
0.05375378631883689
0.05165827392074977
0.04624911201137767
0.03975641624451804
0.044785812422105054
0.04771156435108031
0.047740013336527005
0.04523582423236359
0.0408330927992043
0.03509301329103209
0.02862463655385876
0.0221846043639624
0.016464795340817944
0.011824781505953218
0.008260597267674728
0.005351092500232378
0.0028872067920821436
0.0010695710695756014
0.00011348699992666319
0.00013876664728023326
0.0011506779709285241
0.003034964582124191
0.005568069908759149
0.00844178301133819
0.011299801015088698
0.01378179637842788
0.015569785372046084
0.016430418995300088
0.01624722511688778
0.015037966581316082
0.012954028797629517
0.010261473593867528
0.007306426655229714
0.004469920988607074
0.002118586293419902
0.0005588402531065154
1.4259008465846334e-07
0.000531972646585619
0.0021165668562758196
0.0045971865972713076
0.007720013006298054
0.011275822876813245
0.015599903479279515
0.021247250842574054
0.028183764267481835
0.03592186737295882
0.04360628898256866
0.05034976744425869
0.05545875099958197
0.058290103826596655
0.05811580056413796
0.05452549416203966
0.04842847013100397
0.04015944917669309
0.045622077339889044
0.04968316948686634
0.05140151116734123
0.050624146790992336
0.047617049086611185
0.04275591752342026
0.0365669181345677
0.02980184621396355
0.02326054218814758
0.017499970665708117
0.012714817527867708
0.008596484826268479
0.005000891780399566
0.002204300767455383
0.00048715498788768014
1.0266031010058993e-05
0.0007911258043257159
0.0026973013813705988
0.005458539501861548
0.008696977450450224
0.011972716294875655
0.014839348805804545
0.0169029716483897
0.017876041990819935
0.01761846405394608
0.01615910138993895
0.01369386152639582
0.010560212502364087
0.0071918657800159064
0.00406078653984389
0.0016151529346828148
0.00022288775437165814
0.0001274837892193422
0.0014215393732681936
0.004039650109356093
0.007769898562910864
0.01228140877520291
0.017278691763191363
0.023013975895932026
0.029897915457260702
0.03767209572938205
0.0456479680881879
0.05287361810795302
0.0584766582502085
0.0618593002609521
0.06260630239304187
0.060447321148322485
0.05558502922749532
0.049057493531502315
0.039275224242968976
0.04493072405173467
0.04983701546444991
0.05303898214175832
0.053988868360334195
0.05260175330878448
0.04902726529881343
0.04363777618441103
0.03707165704507475
0.0301146381784503
0.023447446881245157
0.017467504326058796
0.0120797167731306
0.00729472057317622
0.0034816731180363075
0.000987008542690249
1.1725662625117296e-05
0.0005832300024488932
0.002547436180104813
0.005583205482158102
0.00923858502601429
0.012985641291326283
0.016287681782249396
0.018670808165079725
0.019789486825850595
0.019476507908276076
0.01776902837353391
0.014905931283949606
0.011296297719899354
0.0074638530625085915
0.003976255912632638
0.001369939896849181
8.212412520470727e-05
0.00039826589797180555
0.002421006623840887
0.006062372736968621
0.011058098589557737
0.017000546048235043
0.023486393059487097
0.030573248713225483
0.038417193595705224
0.046545296214734626
0.05414931556264851
0.06031060774945157
0.06430131169335249
0.06571909135158838
0.06443526381419838
0.06060222934413633
0.054858028639210965
0.048205597058634565
0.037283321911012836
0.04287281951322399
0.04824662242431377
0.05253745156534123
0.054953012570520224
0.055127340881668166
0.05299079208405924
0.04873250270163871
0.042804891732295666
0.035864910925854254
0.028611756240666336
0.02160696827500082
0.015047884919416478
0.009183346207837116
0.004485807437508183
0.001360744808858465
4.109744181056409e-05
0.000555649984631514
0.0027211097500145754
0.006159943742319809
0.01034317895683089
0.01465441292767828
0.018467715284428483
0.021230387147544258
0.02253867450915127
0.022195702064696045
0.020241858930683705
0.016952354796278078
0.012801431529232398
0.008398626325235813
0.004407010057393429
0.0014558997451900389
6.113360078337221e-05
0.0005629609256506513
0.003088602461754945
0.00754185643545017
0.013618553582060888
0.020843930309487994
0.028693552191010913
0.036927428584791616
0.045352760640059324
0.05332625376321474
0.0600430111187228
0.06476399393842672
0.06700773000716324
0.0666056908509933
0.06368933896474975
0.05871660887842923
0.05256232157202027
0.04609122451090457
0.03444540146191844
0.03972813281791113
0.04517130246553412
0.050051940586378255
0.05347793437622189
0.054901417205620216
0.05407672946407932
0.05101738654953191
0.04596487910498612
0.03937874104692263
0.03188595763863566
0.024153407882717342
0.01670083077308015
0.010058054273676344
0.004797173845422556
0.0013676787145306029
1.893386445974276e-05
0.000766945319078286
0.003388199900764858
0.007442340844699897
0.012322188242781262
0.017326267771368416
0.02174584780194258
0.024956254037738084
0.026500144448689637
0.0261511492940644
0.02394783164688011
0.02019212314095078
0.015411485489692912
0.01029008094631726
0.005579287909355528
0.002000471025203347
0.00015469503689653514
0.00045048728057050087
0.003058292766343336
0.00789506060589799
0.014638410459117361
0.02276636847591808
0.03163887398140976
0.0406657858620858
0.049266801459502144
0.05670151571486741
0.06228865541548159
0.06556134244919828
0.06630808898557176
0.06456155546644736
0.060630429690524665
0.0551384358280632
0.049034696752662685
0.04300972824631998
0.031050184156873325
0.035835433595791076
0.0409942651903709
0.04595929026011802
0.049852514030787956
0.05204851325011978
0.05219143986848465
0.050155795268057225
0.045989749519976315
0.039942715957450275
0.03252339188383234
0.02445316668078396
0.016545992963264186
0.009592309167577449
0.004241680269249815
0.0009658587378008681
1.0651685879687022e-05
0.0013630939177900784
0.004748877772930118
0.009661059483264421
0.015417329540565503
0.021240151257753755
0.026350414839290008
0.030064291149910848
0.031880534862415204
0.031547066041129265
0.029096913427946316
0.02484776122095907
0.01936413089752491
0.013387007054865039
0.007740419452498345
0.003228155237818926
0.0005351808748016362
0.00014624431128042778
0.0022914348077941525
0.006923984975843525
0.013730552369492631
0.022170967419048122
0.03152006857357889
0.040871605388461706
0.04930045669666634
0.05603616312809982
0.06057656698304438
0.06272540677494305
0.06249132378771062
0.06003784805564628
0.055757665377541676
0.05032235504500163
0.04464866925941963
0.03926520691264278
0.027365242140916624
0.031531979556372824
0.03614538820353305
0.04077157902996971
0.04461690281957326
0.04706544246831697
0.047722783076403
0.046380591209246376
0.04294597175396379
0.03749500249573874
0.03041841396993873
0.02245708182481764
0.01463851117913957
0.007932988602581516
0.003028210346931678
0.00039175600225539096
0.00024541280451896656
0.0025345608406391533
0.006930257258006056
0.012863995926331901
0.019591241682756055
0.026276763078497956
0.032092010022747336
0.036313668050029516
0.038411571056372
0.03811511349053465
0.03544953221034206
0.03073649408853344
0.024557948602822042
0.017687129756848025
0.010995690721577819
0.005348287266525748
0.001499738394948715
6.90011761588256e-06
0.0011665711268840338
0.004986056159880879
0.011188156305494159
0.019248337294254098
0.02840893343263707
0.03756262156579565
0.04555199773272927
0.05161178868201702
0.05539527439420122
0.056900806898239994
0.056271552083984676
0.05372820388860151
0.04967093340376741
0.04473771650262641
0.03975524940356416
0.03512719786050683
0.023603787517747422
0.027103814596189418
0.031024671281519076
0.0350290633528168
0.038436269507175366
0.04069559858784059
0.04143322079716052
0.04041831052143606
0.03748925120365602
0.03262030886316789
0.026118130582384824
0.018716685860515662
0.01154011973746685
0.00562166571720331
0.0016374846767669453
2.321789747592421e-05
0.0009598263849659798
0.004346712784387723
0.009808347073735173
0.016733473962128886
0.024342019057424228
0.0317719588732176
0.038176190435019255
0.04281898698968947
0.045160926380130674
0.04492284547769631
0.042120960001244726
0.03706841125560329
0.03034193323871299
0.022716932100244565
0.015078390970875833
0.008318057245286831
0.0032316280600296404
0.0004282765904673409
0.0002640577043974928
0.0028069805011936245
0.007836655014218156
0.014877267179040168
0.023199814967089564
0.03164853524656995
0.03897973157572443
0.044447023758547005
0.047791593965980504
0.049101690297771707
0.048565953887873686
0.04640127113001199
0.04296317589520388
0.0388090063708316
0.03465230699235646
0.030813427442978058
0.019911404057970383
0.022757562538305767
0.025944853545461433
0.029198877260504397
0.03195290449202191
0.03374540427583245
0.034258486674178905
0.033285681392276764
0.0306657685587696
0.026351166291488832
0.020611825494268696
0.014150820376799404
0.008063415717532383
0.0033267781979550203
0.0005569075575330099
0.00013293940544687634
0.002185304314129635
0.00657347212053393
0.012895928695617112
0.020530823944800453
0.028701882852266183
0.03656196921637786
0.04328467853342006
0.048154590799262945
0.050646330797635176
0.050483941203335415
0.04767413827073452
0.04250869831633783
0.0355348694653091
0.02749644092627191
0.0192512624669322
0.011675038811931162
0.005563339038380405
0.00154382001450834
9.813638356449571e-06
0.001083297726913174
0.0046106818633655615
0.01019066731830088
0.017176958505268736
0.02450537244764521
0.030988675027746666
0.035912346883082265
0.039037342901837024
0.04044642866871834
0.04030165906992832
0.038775036428072854
0.03614989833565478
0.03288352288714308
0.029573566287186943
0.02649030899229119
0.016374945002899297
0.01862036148475093
0.021109857250168337
0.02361183368839301
0.02566443580054247
0.026897945722330778
0.027062797894769123
0.02600133229349435
0.023597325323397114
0.019839253680284392
0.014996159817024101
0.009715452073080319
0.004961161844901649
0.0015653749862204285
4.750394544511759e-05
0.0007139306028946589
0.003643743993137379
0.008671460562576748
0.015398637817984572
0.023232402472145162
0.03144580899537445
0.039253083723993006
0.045891352191489966
0.050700905309887585
0.05319549080100468
0.05311563030344117
0.05045901255726233
0.04548382632853658
0.03868374702027394
0.030736240834815028
0.02242964212356433
0.014576671955817085
0.007926268886356485
0.003083175730906191
0.00044667249135992433
0.0001750721365275507
0.002179622321447525
0.00614707707032207
0.011548731771654792
0.017505818673260717
0.022996141814169434
0.027359223491859576
0.030334565810933564
0.03193933044217634
0.032267367177342667
0.03142790480833709
0.029625790848776062
0.027217468942391056
0.024690385362009185
0.0222824438393134
0.013048861704404635
0.014765940789159278
0.016634228084748456
0.018459039501722695
0.019875796555456536
0.020600739200512374
0.020450916112409994
0.019322123342455033
0.017156905498792525
0.013998859033940173
0.010122232157619883
0.006091249479117484
0.002679319905258166
0.0005313240582423176
5.261960696068546e-05
0.0014719200936082857
0.004824669338820317
0.009940578329808197
0.01645514000776546
0.0238431665302045
0.03146994331621538
0.038654321662277086
0.04473700472744428
0.04914757994958496
0.051463644602757555
0.05145613881343276
0.04911587721877678
0.04465754774334529
0.03849964730035308
0.031221796045941115
0.023503316600548458
0.016050495185422908
0.009521313447276369
0.004457124418942368
0.0012298756202556679
1.1077103827575465e-05
0.0007652212754122187
0.0032669786383155326
0.007116007173007814
0.011653393606157577
0.01607862861880188
0.019814333440828162
0.022575911131418935
0.024301019254038214
0.025007977507187
0.02474561759726764
0.023647971074231035
0.021979128367399972
0.02012245481389304
0.018286395831339758
0.00998692915921339
0.011252521324403441
0.012589178777462302
0.013841252906270841
0.014737458969149934
0.015073193153249276
0.014724720373017652
0.013634714883675653
0.01179574054189819
0.009292276966342652
0.0063826078000306045
0.003520821879724703
0.0012737146645005173
9.96973575427646e-05
0.0002913477528259406
0.0020057394367335784
0.005248177764451465
0.009863893032722481
0.015548145568365566
0.021872944418043976
0.02832720048258787
0.03436565876712442
0.03946178458258961
0.043159761034609105
0.045120591282920154
0.04515791079713271
0.043259319699183625
0.03959041305798919
0.034479975614906795
0.02838702923862958
0.021853370220788242
0.015446335070541887
0.009699815798817724
0.005060197804471935
0.0018443690856893647
0.00021439746818162632
0.0001710746592774456
0.0015657846327901367
0.0041167175212258105
0.0073690277458751995
0.010748527920204396
0.013788264990194735
0.01620761917185312
0.01788862982190254
0.018792048736287523
0.018920695736978695
0.018351709060825186
0.01726833782514899
0.015954918650502616
0.014584771058834982
0.007261653322716884
0.008150879047708965
0.009046144332869023
0.009833284452139426
0.010329834964958706
0.01040279647167024
0.009978792155801877
0.009036514003783434
0.007600430593989702
0.005768083693601874
0.0037526773500383423
0.0018819172012630224
0.0005318027339127237
1.151189124260116e-06
0.00048446333690991807
0.0020807668126744637
0.00478022566862271
0.008458940581366073
0.012886745937562546
0.017746637508954867
0.022663603457987364
0.027239516694932558
0.031090793852199473
0.03388534699232399
0.035375506427804564
0.03542373115463135
0.03401818219634985
0.03127604228852995
0.027433489215190763
0.022822673669425718
0.017838129174130704
0.01289606744137639
0.008392147586785217
0.004662316136902161
0.0019519305252811323
0.00039648316448015464
1.551645480333107e-05
0.0007195239096839624
0.002323474647770283
0.004534548181397065
0.006973940103438041
0.009298981504444115
0.01126882778737731
0.012748410056660145
0.01366873006747955
0.014004671651840666
0.013791487406953917
0.013144096760784464
0.012254520954542027
0.011254768126773482
0.004957889755604799
0.005544020356979171
0.006088474082219077
0.006516920894734918
0.006725342848475538
0.006641468659558583
0.0062317754928256615
0.0054993297748702295
0.00448269483979099
0.003268873358356003
0.002008584262191119
0.0009071645406096503
0.00018484641613393437
1.781744388620505e-05
0.0005240756242299261
0.0017609515999233588
0.0037154934233429265
0.006301279319130911
0.00936344745468203
0.012691293296189069
0.01603687113137555
0.01913762811482519
0.021740800765865
0.02362747203712629
0.024634011880267207
0.024668853728548306
0.023722797318575888
0.02187140062842752
0.019268751248093643
0.016132909636729125
0.012724456537700183
0.009320374588134377
0.006186585290840751
0.0035522536598439395
0.0015889308157055403
0.00039694588169663416
6.894189814017729e-08
0.0003486724828350111
0.001328926070820438
0.002763963811098593
0.00442493373491197
0.0060873563993626405
0.007572373527171281
0.008759346953685025
0.009574080690977226
0.009979577666187449
0.009983095961984297
0.009644904320395982
0.009076236395566985
0.008366221104243529
0.003142617418481441
0.003497640332962072
0.0037836441823883332
0.003959935328219312
0.003983115272011622
0.003826168813574179
0.0034828495960670756
0.0029692037217338516
0.0023242248943710977
0.0016121329665159834
0.0009225202859217964
0.0003626320149878813
4.15206392878041e-05
5.0560983578224595e-05
0.0004539996895789529
0.0012822480266026785
0.0025257071703525666
0.004132634786927725
0.006011660957812005
0.00803865482416181
0.010067269707770679
0.011941985999525374
0.013512514615213682
0.014648104130318985
0.015250481514483836
0.015264083623802613
0.014682455040886956
0.013549863794136637
0.011957884647648081
0.010036920314529737
0.007943691133388744
0.00584589999266296
0.003905910171592307
0.002265244561843473
0.0010317524790016191
0.00027073076084536003
9.330977263411531e-07
0.00019566184665129657
0.0007883053819826079
0.0016786579332969816
0.0027421129353242557
0.0038499102057337185
0.0048872206565479725
0.00576357950765347
0.006415139301210746
0.006804641093950099
0.006923276130185465
0.006791645031461178
0.0064569195481406355
0.005969572970904855
)
;

boundaryField
{
    "(inlet|outlet)"
    {
        type            zeroGradient;
    }
        "(front|back)"
        {
            type            empty;
        }
    "(top|hills)"
    {
     	type            zeroGradient;
    }
}

