/*--------------------------------*- C++ -*----------------------------------*\
| =========                 |                                                 |
| \\      /  F ield         | OpenFOAM: The Open Source CFD Toolbox           |
|  \\    /   O peration     | Version:  v1806                                 |
|   \\  /    A nd           | Web:      www.OpenFOAM.com                      |
|    \\/     M anipulation  |                                                 |
\*---------------------------------------------------------------------------*/
FoamFile
{
version     2.0;
format      ascii;
class       volScalarField;
location    "0";
object      nutCoeffs41;
}
// * * * * * * * * * * * * * * * * * * * * * * * * * * * * * * * * * * * * * //
dimensions      [0 0 0 0 0 0 0];

internalField   nonuniform List<scalar> 
1000
(
7.767288369370317e-05
0.00011669527838579915
0.0001527237156216764
0.0001264162283040223
4.9668869733752573e-05
3.569251800751645e-06
-1.2769252028753274e-06
-5.349458086674429e-05
-0.00022830099847996493
-0.0004951427701249144
-0.0007992381328406831
-0.0011510023340593062
-0.00159287279297307
-0.0021430732007285775
-0.0028079733465669427
-0.003586875083067613
-0.004469231634356275
-0.005432520233958565
-0.00644136568282581
-0.007448529438511581
-0.008397999902114603
-0.009230079562913595
-0.009887784686483374
-0.010323694191693438
-0.01050591608405483
-0.010422216626967433
-0.010081468283468958
-0.009512179465030229
-0.008758443411857888
-0.00787408320924502
-0.0069161651443812285
-0.005938847094191428
-0.004988707345873934
-0.004101757451975254
-0.0033023969626799978
-0.0026040195647405546
-0.0020106855265459704
-0.0015193715458764925
-0.0011245348470928199
-0.0008185524506838806
-0.0005631392885645365
-0.00032620490490628475
-0.00013406443067403713
-3.047685850573258e-05
-1.9503660294705542e-06
4.315386522465574e-09
5.631932709387974e-07
2.2138622479402897e-07
-2.0045967541549155e-09
-2.810401929835577e-07
5.2372401751263834e-05
8.696946596777936e-05
0.00015023488004041376
0.00019164138492238714
0.00014807640619568266
5.770090163785716e-05
4.555978121657696e-06
-1.1111880472653464e-06
-5.415990004154905e-05
-0.00023666863602572996
-0.000529744548331633
-0.0008726726779090784
-0.0012588734386793426
-0.0017347898622616527
-0.002321607764601768
-0.003020402543676077
-0.003821850965094153
-0.004703853790010563
-0.005630679828289128
-0.006554326969617295
-0.007418361264195005
-0.008163881025392098
-0.008736662791064572
-0.00909427502253608
-0.00921165850554971
-0.009084192793833238
-0.008727660501715678
-0.008175305031263055
-0.0074726421073939885
-0.006671243433158414
-0.005822602928077838
-0.004972975113809901
-0.004160023355194161
-0.003411123837598384
-0.002743352271064923
-0.0021646703392520714
-0.0016757724278723355
-0.0012721578119119907
-0.0009350984339863035
-0.0006262530418049989
-0.0003452755965073302
-0.00013446218753860605
-2.7261756100885002e-05
-1.0706509856597552e-06
9.778768065726468e-08
1.6964134664775721e-06
1.131798248214336e-06
1.035033989473067e-09
-1.0634924092896484e-06
-4.210788436403334e-06
2.1982685658710497e-05
4.1301489179904086e-05
9.853324820845637e-05
0.0001892545014009677
0.00023613843793854905
0.00018578257972905041
8.005211930975417e-05
9.637944536848837e-06
-1.1884934582024823e-07
-2.8809202425934943e-05
-0.00014143353121568944
-0.0003057204579115239
-0.00048479739199824775
-0.0007093797840345935
-0.0009985902025323385
-0.0013550206574189387
-0.0017743785816012987
-0.0022436951236485003
-0.0027407579587039924
-0.0032352836728885706
-0.0036919777320828687
-0.004075070529871408
-0.004353423373421541
-0.004505163860828576
-0.004520743978753361
-0.004403834975011182
-0.004169992923210944
-0.0038435671216434757
-0.0034536543022570913
-0.003030003785514214
-0.0025996405743309286
-0.002184565501290695
-0.0018007243234663493
-0.0014579954136529365
-0.0011609228974193287
-0.000909882016920628
-0.0007023304321026772
-0.0005339639035515773
-0.0003868401083488281
-0.00022685858949643707
-8.528862204062272e-05
-1.3755879656406935e-05
-8.438245318000301e-08
1.113877991134811e-06
5.201749816290111e-06
3.7482343840544187e-06
1.595732718854495e-07
-1.0429851118071954e-06
-1.3449104910836521e-05
-2.548980255376796e-05
3.7272320132919067e-06
8.88647826030898e-06
3.637356105298525e-05
0.00011693951927940988
0.0002294021414101367
0.0002927115286924892
0.0002488157261967603
0.0001284137675485238
2.970019135398809e-05
6.963951554916714e-07
-1.2481768876509769e-06
-1.3895632513669484e-05
-3.4128005832817643e-05
-6.454851653106637e-05
-0.00011042157938645829
-0.00017391191234357505
-0.00025499340963903294
-0.0003506185053735823
-0.00045444448227725836
-0.0005573703459140748
-0.000648900883188425
-0.0007190533520500201
-0.0007602952890138121
-0.0007689720732931055
-0.0007458190156679281
-0.0006954871473062824
-0.0006252976823795025
-0.0005436536190002689
-0.00045854860501484506
-0.00037649746386275425
-0.00030201955405466033
-0.00023761439367902317
-0.00018408724900355138
-0.00014102217833972998
-0.00010726826095670482
-8.134234703785839e-05
-6.171485371669754e-05
-4.698145641440575e-05
-3.268859142342574e-05
-1.2565458607753987e-05
-7.140012031042775e-07
3.373685118684736e-07
7.521906558378385e-06
1.5592657363239617e-05
1.0203575947592063e-05
1.1158045249879592e-06
-3.556342702305683e-07
-1.8825997130960964e-05
-6.75857714356836e-05
-9.206245010945763e-05
3.5541747398048288e-09
9.500529049899925e-08
3.853235549408248e-06
3.592238558587151e-05
0.00012870857180947363
0.00026186861691285224
0.0003579720042740319
0.0003434037783274571
0.00022900786827599338
0.00010668374388052561
3.8338317302738166e-05
1.529946654540662e-05
8.339140294334507e-06
4.399484060577734e-06
1.8681530564298583e-06
5.638492470094837e-07
8.703432046455377e-08
1.1193592520141595e-09
-5.115558086298358e-09
-5.0277026708849345e-08
-1.0738715417283444e-07
-1.1475162785291202e-07
-6.523769994069299e-08
-1.2707977707681902e-08
4.445941030233189e-13
2.7495572522449485e-08
2.4740405857770157e-07
8.931037980667901e-07
2.1263349767913533e-06
3.923084001224979e-06
6.038151211570258e-06
8.068349935593157e-06
9.582312892984474e-06
1.0258278902221328e-05
9.976324407738725e-06
8.838377792402804e-06
7.119934979803337e-06
5.179077470960896e-06
4.0662846350401e-06
6.783654360521887e-06
1.82462224432231e-05
3.6782826373858965e-05
4.273229438824175e-05
2.4037669328722415e-05
3.5511504751660684e-06
-6.11061674225014e-08
-1.759046142812145e-05
-0.00010082718447024479
-0.00020681480523058353
-0.00023320334065115555
-1.6894130110270002e-06
-1.5411494294739255e-06
-4.686308696288165e-08
1.7423499435103744e-06
2.9725749247410694e-05
0.00012059299866609265
0.00027012683523736217
0.0004128786568968383
0.00046501410757002963
0.0004158314591881628
0.00033564332385052
0.00029219953191193717
0.0002857289302821631
0.00028475730506080334
0.0002826550472881853
0.000281627496782023
0.0002839180749089767
0.0002917072050186478
0.00030708765267155384
0.00033205976183667507
0.0003684681951410184
0.0004177903330661627
0.0004807220179863944
0.000556590346459901
0.0006427158568330607
0.000733960284391239
0.0008227560563446697
0.0008997869351091232
0.0009553552593772049
0.0009811406846369866
0.0009718993391922439
0.0009266102692664468
0.0008487448017566318
0.0007456108319284906
0.0006269909489567857
0.0005034727768937621
0.00038484047870459485
0.0002788381803627646
0.00019735589579948006
0.00015662404076514724
0.00013736669393370942
0.00010311388095158885
4.8274961809883445e-05
7.416195453068945e-06
-9.131681149042527e-09
-1.7250119267094074e-05
-0.00011692412872734085
-0.00030572437135914217
-0.00045035436780930426
-0.00044901909302389874
-1.1729164648962943e-05
-1.5887870447688587e-05
-1.0145154285872137e-05
-1.1619507004227859e-06
2.1127767367471442e-07
1.5535738886495303e-05
8.645169291277419e-05
0.00023264179204283866
0.0004131608787695387
0.0005541772670745883
0.0006322758835884317
0.0006886108957060246
0.0007564675057867109
0.0008321367136256816
0.0009154866450477589
0.0010113925552565357
0.0011255530240174047
0.001264167235783391
0.0014334414415959887
0.0016388276622750486
0.0018838917791843288
0.0021688015785528815
0.002488570385714228
0.0028314592248332507
0.0031781080440814427
0.0035020336164785304
0.003772011563840271
0.003956246338469499
0.004027737226035555
0.003969580733464763
0.0037787900724948176
0.003467545994223111
0.003061487813312288
0.0025954961841853394
0.002108064605755529
0.0016356143616802269
0.0012078455487729977
0.000844846168367322
0.0005607130887306088
0.00035770445490086744
0.0002019841719798189
7.81194915865071e-05
1.0615147989974612e-05
-1.4477525193314152e-08
-2.1780443221497574e-05
-0.0001407923658404941
-0.0003787407557859973
-0.0006380689618543556
-0.0007498738452083412
-0.000685477787502948
-2.456063027911621e-05
-3.9112207558278366e-05
-4.437777697032353e-05
-2.8782508050832452e-05
-7.897385592514184e-06
-1.0307989874095518e-07
2.5126694945616643e-06
3.6663024212299596e-05
0.00013782977980767623
0.00029356425668493596
0.00045189049352272094
0.0005748655959395592
0.0006752007209247335
0.0007847206924034254
0.0009158874135336647
0.0010757452737074691
0.001272434006376117
0.001514709872062114
0.0018110585218849798
0.0021682575101067618
0.0025893294824542454
0.003071005602592938
0.0036010684546776213
0.004156302295634379
0.004701916665366594
0.005193338518792954
0.005580866247502505
0.0058167893465678145
0.0058638653271540445
0.005703089187491559
0.005338699751725875
0.004798853932909678
0.004131619665808725
0.003397186815662063
0.002658131997914986
0.0019700911727127974
0.0013746034392013763
0.0008953500838434408
0.0005330686880673519
0.00026540633069383396
8.669725565681553e-05
8.577767949376263e-06
-2.3247744212280044e-07
-3.6253194534484e-05
-0.00019202628718882291
-0.00047504639420704875
-0.0007928432162926832
-0.0009941917327002693
-0.0009871842735025291
-0.000845868315146669
-2.5995851599963793e-05
-4.773630719233545e-05
-7.595326453751338e-05
-8.863018647921239e-05
-7.15649833249439e-05
-3.7063927711984016e-05
-8.700688652272648e-06
-6.876390879448271e-08
2.7365051254697897e-06
2.8892359793007854e-05
8.20744242389609e-05
0.00013304785958761456
0.000170732842022917
0.00021386242199509077
0.0002721440772111311
0.00035129540202989283
0.00045841347651516773
0.0006017627572379111
0.0007901267667935088
0.0010315430720063312
0.001331362297840504
0.0016897309029819789
0.0020988659027343353
0.002540829631201723
0.002986648001328432
0.003397680377383859
0.003729743350070498
0.0039397318329526705
0.003993682043272427
0.003874357235421395
0.0035862515669435107
0.0031563635405812323
0.002630177135084185
0.0020636710897636323
0.001513272821147403
0.0010262572474554945
0.0006337762717933755
0.0003479151945004393
0.00015781456260324873
4.22983602803986e-05
1.4469704720624063e-06
-3.478952724450026e-06
-7.405008773099047e-05
-0.0002902564917766722
-0.0006271735490832328
-0.0009717239877292247
-0.0011888265224297462
-0.0011949013880842045
-0.0010368124169794642
-0.0008448258113327027
-1.3406787248945915e-05
-3.051275140389856e-05
-6.828458276210555e-05
-0.00012087887879278322
-0.0001603520746168687
-0.00016386177806426334
-0.00012783993637124447
-7.092262147100471e-05
-2.4438446914927414e-05
-4.048799863770787e-06
-1.492150660667294e-07
1.0077237383557532e-10
2.4574733311037146e-08
1.5900793111954208e-07
7.014574978565186e-07
2.3945511980641883e-06
6.770272687614328e-06
1.6518705652973263e-05
3.572510398368669e-05
6.9761105363585e-05
0.00012462385833908538
0.00020562457944325763
0.00031552667504615363
0.0004525086949664748
0.0006085581606378479
0.0007690274568281399
0.0009139459158349727
0.001021241349800368
0.0010714088998409338
0.0010524821602943934
0.0009638093253526036
0.000817252619721304
0.0006351406294925013
0.0004452973661402293
0.0002744882721224741
0.00014221174105214678
5.6653946543785214e-05
1.3964503358359231e-05
7.271280878637079e-07
-8.090851448899431e-07
-3.175775573625808e-05
-0.00016980204324610173
-0.00046047342837712813
-0.0008437110032466792
-0.0011842699960138861
-0.001361539971380413
-0.0013223931825195137
-0.0011089821043668772
-0.000856938731301827
-0.0006704727630969936
-1.5731967831997118e-06
-6.762990749383326e-06
-2.8413807111799823e-05
-8.351498677410415e-05
-0.00016896425314641775
-0.00025998807062562764
-0.0003231180745226284
-0.0003314828024886801
-0.0002865147572034767
-0.0002216797778590564
-0.00017315575039826716
-0.00015886847575221028
-0.0001662385804162675
-0.00017042895089663902
-0.00016414740145114694
-0.0001474553378115796
-0.00012230942161110887
-9.23184695504369e-05
-6.199805696607533e-05
-3.568785886684874e-05
-1.6434725236804627e-05
-5.203643680833649e-06
-7.122090506581058e-07
-1.7620997296452006e-10
4.091657710353798e-07
3.148664043197147e-06
8.973012522646559e-06
1.6507667726285823e-05
2.2953089997204877e-05
2.549861716757527e-05
2.2827531866454155e-05
1.5961671300815275e-05
7.906908904345726e-06
2.07520902965736e-06
6.061094368740876e-08
-2.412731938600381e-07
-5.1820925229150985e-06
-2.4045840752768604e-05
-6.913222145359974e-05
-0.00017323885849957447
-0.00038898451315258796
-0.0007235773921574889
-0.0010972971951561
-0.001376650219949722
-0.0014654966561191529
-0.001348589093446626
-0.0010807840868845096
-0.0007690468139146445
-0.000532268373101399
-0.00040235549481048633
1.9399815927479558e-07
-1.6870522682538434e-11
-1.7428162687720212e-06
-2.0757129720452148e-05
-8.135738337925018e-05
-0.00019456213131412278
-0.00034974975415528515
-0.000514490642268946
-0.0006488235188450966
-0.0007380247956647176
-0.0008084243793912912
-0.0009083787484228674
-0.0010422909813255583
-0.0011660517669579643
-0.0012565544976336578
-0.0013032586734518232
-0.0012998300798118681
-0.0012455141935570199
-0.0011455500844280745
-0.001010446651538206
-0.0008542409951823418
-0.0006920985112609385
-0.0005378311956978749
-0.0004018928998116976
-0.0002903082112332272
-0.00020468104310120955
-0.0001431162143778809
-0.00010166785068676684
-7.581702514406615e-05
-6.163386904401291e-05
-5.6481268933722734e-05
-5.9345876696148954e-05
-7.09741531287497e-05
-9.390938965631977e-05
-0.00013234879795307315
-0.00019158016304304112
-0.0002767741795526382
-0.0003911366171448956
-0.0005409215461810702
-0.0007540026807932914
-0.0010304816776925986
-0.0012920443850324408
-0.001434266504849093
-0.0013984823380415368
-0.0012030163826374646
-0.000912804154492364
-0.0006076122829297947
-0.0003626580529621613
-0.00022140172117372082
-0.00016208540117521172
1.932813320192155e-05
1.1989159748857543e-05
2.037524708663414e-06
-1.4777408052154475e-08
-7.516599527996873e-06
-5.137723179428434e-05
-0.00016112660837174
-0.00035135268960519286
-0.0006094210621775592
-0.0009021407597063044
-0.0012049245368778206
-0.001518996153179981
-0.0018505196125971385
-0.0021820857932833993
-0.002488346511683464
-0.002744117360941037
-0.002926541713780306
-0.0030186650144607124
-0.003012334306464186
-0.002909726663065691
-0.0027230784353715664
-0.0024726222966747115
-0.0021832153891676227
-0.0018804030036285446
-0.0015868683936915602
-0.0013199414301776572
-0.0010905499499811
-0.000903564188551266
-0.000759111428462923
-0.0006543572885825133
-0.0005852350094267049
-0.0005477929245761001
-0.0005390080395998665
-0.0005570428721384486
-0.0006009939923286977
-0.0006702004217716616
-0.0007632162863862871
-0.0008766352720107806
-0.00100569159472142
-0.0011385224497682288
-0.0012286700817504296
-0.001215187575824868
-0.0010768178176272425
-0.0008501180973014916
-0.0005965036887020815
-0.00036649755696087615
-0.00019276539035921052
-8.85777524662641e-05
-4.385291422553866e-05
-3.0871042749337405e-05
0.00012022995852078152
0.00011121675126866784
6.818606238661215e-05
2.2753215504289246e-05
2.1213778117870632e-06
-8.192304610064216e-08
-1.1607518910519044e-05
-7.122782639422864e-05
-0.00021374472913002334
-0.00044829724498104425
-0.0007514801002076998
-0.001082271741025053
-0.0014280769144655895
-0.0018000054337829379
-0.0021842667300691464
-0.0025536164625275764
-0.0028781210795189986
-0.003129431100658647
-0.003285280828562833
-0.003333221837177664
-0.0032726294491278634
-0.00311451832329139
-0.002879223747793129
-0.0025926072021592718
-0.002281761889155803
-0.001971218911349863
-0.0016803267379760691
-0.0014221297890278995
-0.0012035457789011008
-0.0010264783038024905
-0.0008893368922273932
-0.0007885490086137894
-0.0007197725886534783
-0.0006786754518950174
-0.0006612759042157268
-0.0006639104362571616
-0.0006829393390529216
-0.000714331688994655
-0.000748168779790978
-0.000749930781062472
-0.0006834342785420822
-0.0005516503069619889
-0.0003887317600080262
-0.00023772469153704077
-0.00012388217923048003
-5.182155829765274e-05
-1.546893140196316e-05
-2.8722090353024353e-06
-4.733734909042637e-07
-2.7899529087011577e-07
0.00035780057490779755
0.0003835052865056609
0.0003320971907864924
0.00022675556156778422
0.0001208822389039109
4.4861251668351824e-05
7.533281639481642e-06
8.502820301013542e-09
-4.2983076755235985e-06
-3.908599739527037e-05
-0.00012220946358772067
-0.00024224335460332208
-0.0003872896481449096
-0.0005658416969758344
-0.0007758003311213712
-0.001003994071079483
-0.0012317728560947024
-0.0014375868885994167
-0.001600576293555266
-0.0017043135353261157
-0.0017397171161031098
-0.0017064118648458329
-0.0016122276122491638
-0.0014711366253356848
-0.0013002908749581118
-0.0011169873406864253
-0.0009362216893404568
-0.0007692263781867632
-0.0006230049022252834
-0.0005006851641237021
-0.00040236153421740426
-0.00032611389390477155
-0.0002689680623785283
-0.00022764000648592612
-0.0001990223989053723
-0.0001804244005959409
-0.00016961631111934658
-0.00016475100576149307
-0.00016107658904580954
-0.00014300191956044992
-0.00010404643385151233
-5.917549997109805e-05
-2.459331588991412e-05
-6.415675782255616e-06
-5.759472338992407e-07
2.3887398138848603e-09
9.959788414741416e-07
4.57105237024542e-06
7.186410938429538e-06
5.55563870501775e-06
0.0007178249754248893
0.0008305529350664456
0.000847517502583012
0.0007618261481054992
0.0006145334580100289
0.00044260135247064283
0.00027532186283741944
0.00013856628506144622
5.045706395788105e-05
1.0488805340909528e-05
5.110705131879825e-07
-4.32770086086198e-08
-2.3171121549474737e-06
-1.1457540086341437e-05
-3.132739944984147e-05
-6.337365684460333e-05
-0.00010579858775697762
-0.00015365176892076556
-0.00019989964688678903
-0.0002371585148335452
-0.00025952820285613616
-0.0002639521112073544
-0.00025072184730348787
-0.00022307731653223246
-0.00018614552660418124
-0.00014562038048909133
-0.00010657853791823865
-7.268995833051926e-05
-4.591116322623535e-05
-2.6608218672154203e-05
-1.3965556697919831e-05
-6.513738596406319e-06
-2.625284625092066e-06
-8.753017202774285e-07
-2.2429854448064938e-07
-3.838407120041814e-08
-3.143414833178028e-09
-3.2554260984652915e-11
1.1896526153360964e-10
1.969795652579709e-08
4.111787213025371e-07
2.752165107567974e-06
9.700883646808496e-06
2.266699935915541e-05
4.04607320014066e-05
6.0559894592146916e-05
7.928791031474318e-05
8.983901879387559e-05
8.280687148756735e-05
6.068664776951156e-05
0.0011004031426663848
0.001332444300929031
0.001492516753351667
0.0015489247258612124
0.0015087412861904622
0.0013845259278946588
0.001191083194560595
0.0009524027824911822
0.0007053047731027561
0.00048808936359273836
0.00032370675940064165
0.0002142918300029472
0.0001404424687888433
8.605435903506656e-05
4.807832792234428e-05
2.418210589785502e-05
1.0794934655196192e-05
4.223327345424122e-06
1.4486586147474051e-06
4.572588248303982e-07
1.5916962289054351e-07
9.02761862791379e-08
1.1544416408822983e-07
2.7241841548125005e-07
7.779272164800418e-07
2.1224275479273828e-06
5.142679463826089e-06
1.0980691174956102e-05
2.0891351287382996e-05
3.592319267327762e-05
5.6549293499871335e-05
8.235750458425368e-05
0.00011190590704489113
0.00014281560109525706
0.00017210470055793793
0.00019669148050892877
0.00021394087423618263
0.00022211481732061904
0.00022363792969647204
0.00023227838526443742
0.00025732874543445274
0.00029389999049988873
0.0003324849149803135
0.00036193521807526013
0.0003752824291029863
0.00037148840632472366
0.000351054276297188
0.00031205415338565246
0.00025183396153650143
0.00018141890761685917
0.0013691887750951236
0.0017050457355137936
0.0020182158832245823
0.0022724678142630296
0.002448555264716818
0.0025323153586572908
0.0025138582074543288
0.0023938415332241656
0.0021912395811163206
0.0019420546886004802
0.00168714648333455
0.00145851384512546
0.0012539603685055207
0.0010602578979523583
0.000882765606520652
0.0007286804305930472
0.0006013609184927042
0.0005010765295743979
0.0004260616297867871
0.0003735866993971984
0.0003408351574309082
0.00032548820522910695
0.00032602812220312047
0.0003418021366697877
0.0003729098394839551
0.00041995039937024764
0.00048365201923791594
0.000564402505589614
0.000661717374713325
0.0007737112724281798
0.0008966838921229085
0.0010249465227855795
0.001150997442205371
0.0012661035703892447
0.0013612256361957848
0.0014281447303187845
0.0014605558819269665
0.001454909458081994
0.001416375782327038
0.0013705691960670275
0.0013311757053066713
0.0012859892629971405
0.0012212638277369942
0.0011289597357771839
0.0010111698813623853
0.0008771210548091699
0.0007360211395672109
0.0005932749742829705
0.00045223673453062167
0.0003234186448300266
0.001430525766346535
0.0018106333255847788
0.0022088506257299067
0.002597746079134676
0.0029503476155228092
0.003241645432779428
0.0034501147495529572
0.0035612932563090513
0.0035720706016980725
0.0034928613838108554
0.0033453033007101282
0.0031561854295495935
0.0029408451367459905
0.002706990962291622
0.0024693576610975306
0.0022425446109260155
0.0020375283978900476
0.00186163955650665
0.0017190409235318493
0.001611501012846964
0.001539235751772361
0.0015016510070193947
0.0014978821781149677
0.0015270976467289192
0.0015885503618529057
0.0016814066693836235
0.00180437790709405
0.001955195513490592
0.0021300147419702387
0.0023228559649574104
0.00252523839125502
0.002726170662931707
0.002912623717522535
0.0030705170322527543
0.0031861233171586907
0.0032476368820855196
0.003246641473898306
0.0031791622698687447
0.0030488659651335005
0.0028723717447779133
0.0026624483072269617
0.00242163509875467
0.0021541723072311405
0.0018683844076471394
0.0015769637439865688
0.0012940633854382608
0.0010313068093241314
0.0007959317478533072
0.0005917359260812693
0.0004225837428903052
0.0012817744764484966
0.0016339060391792122
0.002015744363859621
0.002408610578806823
0.0027899151811985163
0.0031372199508454186
0.0034306785379241383
0.003655070359771444
0.0038010229926104468
0.003865869378478428
0.003854097074991586
0.0037767106908147214
0.003649439501897703
0.0034889372786788154
0.003310761646223765
0.003128905425961719
0.0029551117975004757
0.002798536531462402
0.00266581471418825
0.0025614008494850827
0.002488049459546365
0.0024473079673604137
0.002439927725988851
0.002466149212937999
0.0025257769560844837
0.0026180766217988208
0.0027414661294802565
0.002893048794759978
0.003068061483543515
0.0032593706550318397
0.0034571653917138566
0.0036490505276629633
0.0038206507113914237
0.003956759152119177
0.004042909144408589
0.004067081330551618
0.0040212366677783015
0.003902349085867329
0.003712704290674507
0.0034594253125389495
0.003153998484082368
0.002811334448469168
0.002447882156861986
0.002080074890515638
0.001723113195909939
0.001389973840058419
0.001090556529529484
0.0008311329210177826
0.0006144599752162012
0.0004402282806280378
)
;

boundaryField
{
    "(inlet|outlet)"
    {
        type            zeroGradient;
    }
        "(front|back)"
        {
            type            empty;
        }
    "(top|hills)"
    {
     	type            zeroGradient;
    }
}

