/*--------------------------------*- C++ -*----------------------------------*\
| =========                 |                                                 |
| \\      /  F ield         | OpenFOAM: The Open Source CFD Toolbox           |
|  \\    /   O peration     | Version:  v1806                                 |
|   \\  /    A nd           | Web:      www.OpenFOAM.com                      |
|    \\/     M anipulation  |                                                 |
\*---------------------------------------------------------------------------*/
FoamFile
{
version     2.0;
format      ascii;
class       volScalarField;
location    "0";
object      nutCoeffs14;
}
// * * * * * * * * * * * * * * * * * * * * * * * * * * * * * * * * * * * * * //
dimensions      [0 0 0 0 0 0 0];

internalField   nonuniform List<scalar> 
1000
(
0.1076122109958157
0.10091562745340948
0.0903947103758554
0.07699497193521217
0.06075436480068582
0.04229206740112613
0.02283738412059891
0.003995381945379427
-0.012304651069077206
-0.024828245624071932
-0.03388431171721624
-0.040622608695413176
-0.04624696345624417
-0.05139712689643557
-0.05610059079057254
-0.060260524260686885
-0.06381495695023454
-0.06674607437831943
-0.06908579151630358
-0.07091544658795916
-0.07235768948511587
-0.07356134801758268
-0.0746806855274225
-0.07585270234507119
-0.07717601937491157
-0.07869471475404899
-0.08039004441390821
-0.08218009251706018
-0.08392780634552202
-0.08545533996576839
-0.08656234484383032
-0.08704607272115938
-0.08672068509967493
-0.08543454127163852
-0.0830837567324513
-0.07962169140532077
-0.07506384147464738
-0.06948812600633711
-0.0627396293978119
-0.053617385547291056
-0.040657128445451114
-0.023294637954561857
-0.002201906936918981
0.020445359594146464
0.042246087769992564
0.06151475288807028
0.0771321640380555
0.08898695021814217
0.09818941763206959
0.10452384305838217
0.11313192394461284
0.10523971114685785
0.09493704536757505
0.08371217299515288
0.0708441601931243
0.05578435618117478
0.038779489460623935
0.02069060336914466
0.003207445627874842
-0.011722449454522122
-0.023067468097595616
-0.030809745956484433
-0.03621257251512875
-0.04064570856523934
-0.0443207266240139
-0.04716150089620175
-0.04915147679787202
-0.05033926512978659
-0.05083877663835778
-0.05082142323760327
-0.05050060197842132
-0.05010909342528458
-0.049872321207270996
-0.049981223139852156
-0.05056873613184716
-0.051693319478333846
-0.0533317644962487
-0.05538140589245473
-0.05767120633435146
-0.05997945086817513
-0.06205490377759287
-0.06364013107073553
-0.06449324257979512
-0.06440783504184255
-0.06322920578336054
-0.06086656651583019
-0.057300727808328934
-0.05258684176799495
-0.0463303502608393
-0.03645092278014432
-0.021552092242711898
-0.002567872656592101
0.01843332869620134
0.03879535750123988
0.05662289237805537
0.07115523829649105
0.0824499437234094
0.09178538289799398
0.1009678510664502
0.10878565130156667
0.11698187157732161
0.10757126096538693
0.09655760835612574
0.08618631200951656
0.07574685246371901
0.06410962884782195
0.05077896646973159
0.03576062958365287
0.01992771811139206
0.005126632104277964
-0.0067710217499963865
-0.0146574913160964
-0.019481919868056127
-0.022877301803000755
-0.025127072447840928
-0.026176864328675494
-0.026062427360462857
-0.024911607520425146
-0.022937833924700158
-0.020424365755407757
-0.017699972743014793
-0.015107825787759023
-0.01297156106426651
-0.011562267746341125
-0.011071199088400813
-0.011591013505738686
-0.013108035308635933
-0.015505192167534496
-0.018574958156223956
-0.022039739220145356
-0.02557690990969184
-0.028846352027803668
-0.031517494817817945
-0.03329486256409538
-0.03394018881704522
-0.03329022191376289
-0.03126934714076632
-0.027896197380367027
-0.022692305673555437
-0.013365683474525289
0.0010406103531947057
0.01846889901682115
0.036161831184825605
0.05181353358982413
0.0645480542364086
0.07461903902874643
0.08301409754776817
0.09170384174014198
0.10219346995914577
0.11198117584306039
0.11978359029185358
0.10875123426204997
0.09624580920676198
0.08519408628291303
0.07544678115050166
0.06593638345024402
0.055928622761835696
0.04486915518907817
0.032656028298443274
0.020308228591708576
0.009669152679067494
0.0023629991312917706
-0.0019386545902222428
-0.004434801924411478
-0.005304233616434857
-0.004510198752865711
-0.002143878892306481
0.0015774892609083991
0.006324203115600607
0.011678943370637436
0.017171453370966334
0.02231983594752905
0.026673524227759034
0.029854318552064104
0.031589487952518695
0.03173472021278608
0.030284389977306758
0.02736917406840436
0.023242053034656172
0.018254955940978913
0.012828896662806266
0.007419702689984484
0.002483021029593379
-0.0015603304805688729
-0.004355851795524525
-0.0056417362626520464
-0.005268896647940097
-0.003212335545641336
0.0008878304354261124
0.008718723663070386
0.020517593295814648
0.03386177998862703
0.046261890581107835
0.05648351761995531
0.06481635860503074
0.07223048218127855
0.08008016495129174
0.09021133341857819
0.10309691610822878
0.11506182496267169
0.12219296240559582
0.10968741277152229
0.09525001503280056
0.08219842029868396
0.07117194752838636
0.06163550476508141
0.05313110621722532
0.04505356916909727
0.03660691437310286
0.027669371319531597
0.019238201944498236
0.012654176273680913
0.008328918935535666
0.006132616587382467
0.006155753290016552
0.008422505898750285
0.012784209497386602
0.01892520513166201
0.026383984910735136
0.034588403698881234
0.04290226868422747
0.050678701228165285
0.05731457143726859
0.062301471093047886
0.0652671100240676
0.06600409039352087
0.06448410236551642
0.06085681276809002
0.055434674244354755
0.04866576267662834
0.04109742596519792
0.03333295591397121
0.025985860514073957
0.019633170865316643
0.014771679710548977
0.011780550985690919
0.010892308994147833
0.01217547765052658
0.01569707970797435
0.021866817818759265
0.030110828528995496
0.038518680852440264
0.04572497310659656
0.05189406785394997
0.0581966108687208
0.06576081908174378
0.07566161461998733
0.08896413248421095
0.1048172620403176
0.11882292161905991
0.12476450263711845
0.11116206077640625
0.09478855145502381
0.07896560231588402
0.06504465901486607
0.05320946226652139
0.04359845643905662
0.036016399614206884
0.02949908546673341
0.022980508262833828
0.01624016456394744
0.009733281228735634
0.004512541272847843
0.0017860044074300612
0.001984827659123077
0.0051217450747447985
0.010986915973688385
0.01915783374292889
0.029028495994103523
0.039855662898878805
0.05081836190317844
0.06108483305176395
0.06988027553324049
0.07654975856877141
0.08060953132112017
0.08178345778707825
0.0800217544911572
0.07550157077024593
0.06860998769819461
0.05991178544526475
0.05010497478599185
0.039966341919588734
0.030292723059817218
0.02184018350678409
0.01526611356398247
0.011079281859081502
0.009600676402857578
0.010939717761263757
0.014797460136520186
0.02004964409321159
0.025443750039293063
0.03021795884597193
0.034529457678318075
0.039741157916002925
0.04731750146820878
0.05796458190400684
0.07199561440179876
0.08938691843634305
0.10812204283034386
0.12370101466046213
0.127829486879399
0.11366316267462023
0.09577486449987987
0.07712141297099588
0.059485983797405356
0.043692406231641945
0.030526615025951262
0.020431554151245767
0.012777012638192916
0.006107698894797321
-0.0007912094731640116
-0.008441081838050188
-0.015398777306057963
-0.019352612067627933
-0.019591002296908397
-0.016117882505722637
-0.009210380573744686
0.0005953485332792014
0.01254113462015506
0.025704049946445998
0.039068597289205496
0.0516080410254208
0.06236578878922947
0.07053163709882226
0.07550441225351058
0.07693688666930237
0.07476018625659994
0.06918592974652656
0.06068724441897129
0.04996050791521443
0.03787139391833878
0.025387880715863672
0.013507465543421412
0.003180566429238124
-0.0047620948467040755
-0.009673009151591973
-0.011137428006681155
-0.009003765972681179
-0.0038739587353008426
0.0018702062179776129
0.006599290205039289
0.010811980016804354
0.015955105555997412
0.023956525599105737
0.03593675515233924
0.05180441547459104
0.07094247306838594
0.09231289870666816
0.11321585103259155
0.12965515280766257
0.13140127384564035
0.11726163322330908
0.0986027894981529
0.07774867520525452
0.056552683597352806
0.03623557346514756
0.01806745138631375
0.003091995154798514
-0.00869892680151267
-0.018516533979860583
-0.02790890525503834
-0.03793659191451476
-0.04705057970095216
-0.05246237557157533
-0.05334507844760386
-0.049730202156751106
-0.04196954825219004
-0.030716970243720648
-0.016883817817578903
-0.0015721384634474036
0.014009551448630924
0.02864049882840454
0.04118293066726986
0.050671520640603054
0.05638757234520388
0.05791346706248959
0.05516297437179297
0.04838545909405804
0.03814488890068464
0.02527530535773938
0.010816942269396864
-0.004063519979541098
-0.018160666390674988
-0.030322150584193998
-0.03953668155945737
-0.04501055260217564
-0.0462276504409109
-0.04298675392636583
-0.036017269186055245
-0.02825906206725967
-0.021370433802135394
-0.014052120988521178
-0.004321621165111332
0.009521589049526456
0.027811053206569333
0.04959864723761685
0.073483647317714
0.09776723361566171
0.11967340373244119
0.1361499980560555
0.13513087292994577
0.12155989029712962
0.10302952737877664
0.08110617033994694
0.057378137160205775
0.033172308668037116
0.009984810873775523
-0.01075307438178803
-0.02839796963476803
-0.043455547723827426
-0.05704973616088458
-0.07007728168821782
-0.08109778748826442
-0.08757697303468956
-0.08876790048429871
-0.08474335381622769
-0.07593701465622402
-0.06312072266061902
-0.04735387121528691
-0.029908067670493983
-0.012172868912690265
0.004449980269990704
0.01865380255631251
0.029328800226413997
0.03564715670509651
0.037126639159089675
0.03366667736577186
0.025554968255389048
0.01344451524059914
-0.0016966616439511148
-0.018658979918550842
-0.03608296986438178
-0.0525610038621692
-0.06674336548791476
-0.0774400446365337
-0.08370940179654263
-0.08492791950916091
-0.0808338746773316
-0.07207071202163541
-0.06130844633096761
-0.04997168499813306
-0.03676570822082572
-0.020103198341255627
0.000854739506915857
0.025534658672808744
0.05234745677379168
0.07944957605573756
0.10493980132282005
0.1265060633747105
0.14223894794913222
0.13834026980113176
0.12573890295615067
0.10819218077895433
0.08653175457124469
0.06184801122323281
0.03532803343588378
0.008452928243221268
-0.017215624768595734
-0.04054151927724403
-0.06115874951418174
-0.07924033376653243
-0.09491400079122662
-0.10694321761546667
-0.11357629570652239
-0.11429091276927283
-0.10921433793915085
-0.09886672953547265
-0.08413440864671891
-0.06621355812024722
-0.04652784046010416
-0.026625713719858467
-0.008065507670242871
0.007702228127729148
0.01944596096146203
0.026247902611942407
0.027574591801332624
0.023318029186116612
0.013803875608098124
-0.0002332890970256102
-0.01770546755486872
-0.03725243542681102
-0.05734408283471323
-0.07639340575972703
-0.09287430882926509
-0.1054348976327888
-0.1129956350579236
-0.11482751403848233
-0.11060111473154347
-0.1007107625351377
-0.08693903530465323
-0.070379232201743
-0.05050749389601997
-0.02683688931335794
0.0003444528290490299
0.029730383843979084
0.05943540062177675
0.0875427200433476
0.11234670587734584
0.1323452744863785
0.14672950291696557
0.14014805515486042
0.12871687325586795
0.11277933140048423
0.09257347398543181
0.06860098663739735
0.041762276371937246
0.01336799439460358
-0.015089850049661357
-0.042217824916235214
-0.06689549444047611
-0.08821908309021247
-0.10530002601586202
-0.11708882002850125
-0.12276406558673444
-0.12207397332515423
-0.11520911556283016
-0.10277585612527902
-0.08576535623971566
-0.06549216779509293
-0.043505605129093385
-0.02148077108244328
-0.0010960951004835321
0.016090891556097133
0.028761954183284383
0.0359384126008225
0.03705641403977833
0.03201062988222608
0.02116288602264845
0.005315566127652221
-0.014347753674108447
-0.0363497452325194
-0.05902845373100352
-0.08065866036733156
-0.09957725739987301
-0.11430430710685713
-0.1236481485068767
-0.126788458160313
-0.12333013181261931
-0.11336589947276039
-0.09760387278051849
-0.07687030631509491
-0.051800861871032104
-0.023229593994315782
0.007559310424620855
0.03885563188743964
0.06879116243823097
0.09564476180644703
0.11814534760973339
0.13570865180606084
0.1484048672396749
0.13966883418875958
0.12939548698652464
0.11534000750535772
0.09735004373871191
0.07538895437811612
0.05003896074396523
0.022390037601092767
-0.0062332652383827155
-0.0343971745523113
-0.0605255011804613
-0.08288847881639286
-0.09974320915579782
-0.11014152746979869
-0.11397113322649571
-0.1111990361924386
-0.10208071628136746
-0.08730014490701253
-0.06793461834359903
-0.045388546184810696
-0.02129998968697234
0.0025732294061190605
0.02447974530004665
0.042802891330553504
0.05618132437273056
0.06361139619559932
0.06452307471315144
0.05882364300431103
0.046905533887085675
0.02961798517086607
0.008204891761203299
-0.015785039596938583
-0.040611535543175835
-0.06446703044891311
-0.08560620414906545
-0.10247006868813938
-0.11379403525554181
-0.1186940165015355
-0.11672244502217702
-0.10773366068246853
-0.09161170030723145
-0.06907027202420533
-0.04179533506469129
-0.011670155044924711
0.01941754552759058
0.049680308183863126
0.07745413995930076
0.10133135346873454
0.12053638144817286
0.13530217075612191
0.1462658901112132
0.13623121222241938
0.12692818263537387
0.1146522400715026
0.09906172871075644
0.07973208613353236
0.056990590049454795
0.03174235556795991
0.00514343086935549
-0.021473085495058008
-0.04641697781372415
-0.0675914345582223
-0.08283085197832346
-0.09119067281513064
-0.0928466607000234
-0.08787736055634725
-0.0765958396717226
-0.05974496382283175
-0.03845831336231789
-0.014190144346535745
0.011381229924529189
0.036469261547401814
0.05930626603779974
0.07827075286621557
0.09200653187925363
0.0995224849794777
0.10026577688898612
0.09416323049313517
0.08162713795971173
0.06352578665642246
0.04112110184182193
0.01597862932507549
-0.010144568178738452
-0.03542378420787065
-0.05809507496004439
-0.07657842837629246
-0.08958572710323595
-0.0962062347310584
-0.09596333204242753
-0.08860557222788756
-0.07368941712672798
-0.05197101473582728
-0.025714536041864487
0.0027043603161159327
0.03124979480714118
0.05828137179406218
0.08239035438623132
0.10247239420815452
0.11817114072518044
0.13029937392390403
0.1397495514492256
0.12954345651852628
0.1209245078861496
0.11003433851103307
0.09649161480085545
0.07967073006263695
0.05975421607574464
0.0375392999322831
0.014069407132729889
-0.009472038491855992
-0.031539363891913225
-0.050115716708243975
-0.06308349728216728
-0.06944474215356203
-0.0692688063660104
-0.06264065320017187
-0.04991510054649556
-0.03186572526943235
-0.009642596565949407
0.015299736459902654
0.04129960538498334
0.06660251846906967
0.08948509884242847
0.10837750966630172
0.12197630751750688
0.12933826582728436
0.12994780780759208
0.12375420166441753
0.11117510985455666
0.09306680912576147
0.07066387391226682
0.045492221484653206
0.019261784416709577
-0.0062524260540047704
-0.02933393410528484
-0.048443204790205724
-0.06232151835854687
-0.07007402775111295
-0.0712240766053542
-0.06554693399169877
-0.052744454356886676
-0.03370182023894023
-0.010706449211463024
0.013932868165794492
0.03838161194520558
0.061245445325481464
0.08133455981018346
0.097770728236791
0.11046972234958759
0.12053711279603786
0.12887402058046124
0.11975567955886143
0.11152700876083523
0.10149479057583563
0.08931875889105521
0.07433910290259975
0.05669761179938923
0.03715147655019573
0.01669201706773704
-0.003626768311092033
-0.02251210265969524
-0.038292180232855744
-0.049208028342049376
-0.05421829905274009
-0.05308710829145604
-0.045845273789022714
-0.032866947182742606
-0.014921925625345004
0.006868486721806445
0.031103434850436963
0.05619690673608456
0.08048740872634862
0.10235442609523965
0.12033203543687852
0.13321239887002762
0.140130017890652
0.14062196158111423
0.13465951686080427
0.12264960785293284
0.10540586851585568
0.08409195117201013
0.0601410238831882
0.03515556048873688
0.010797779219651405
-0.011325978523498136
-0.02977496083006226
-0.043371295422134325
-0.05127698226272538
-0.05304464934920306
-0.048552745421718044
-0.0378930311554437
-0.02207120501005747
-0.0030097388652418466
0.017398484334178604
0.03768451601637695
0.056700656039385976
0.07341618301495835
0.08709400485737656
0.09776752071785472
0.10657190367893542
0.11426605769725744
0.10741140562339464
0.09935012549241233
0.08968459215189183
0.0781423166190333
0.06414707199411261
0.04786574839278678
0.030042740779263687
0.011642922452635606
-0.006365219165662863
-0.022916280502656393
-0.03672018866417414
-0.04644881961703528
-0.05108104508390212
-0.05010848725885114
-0.043501821781059005
-0.03162836296418403
-0.015217297013190636
0.004684321881369918
0.02678073590003111
0.04961623687328548
0.07167614245673684
0.09149271328014591
0.10774689971567404
0.11935953114060321
0.12556474019319117
0.1259613264749866
0.12053886254293393
0.10967706328324663
0.09411871606671326
0.07491853405421892
0.053370230555672145
0.03091778115630027
0.009056144218389623
-0.010771698380693992
-0.02727360591334675
-0.03939548344119638
-0.04639014927580195
-0.047862453925017256
-0.043798336411980575
-0.03464629658027923
-0.021444139006588515
-0.005627447385709857
0.011406041176203943
0.028544552635484364
0.044838371313040526
0.05937422294372953
0.07149779026147095
0.08124002105350372
0.08957200965079787
0.09705047996125404
0.09332261481882437
0.085322756426538
0.07569739890747407
0.06424469236020698
0.050541269096116344
0.03480475341024974
0.017754291516175226
0.0003115857192717988
-0.016613509691277107
-0.03209852523916996
-0.04512375672019235
-0.05468638481051984
-0.05986286147494601
-0.06004675727689151
-0.05517690065139569
-0.04558714435596178
-0.031931572917909
-0.015142371960641339
0.003633831948188887
0.023115701523802816
0.04197734186760344
0.058940400802862676
0.07286220688872092
0.08281309758811854
0.08813821879746626
0.08849981036489113
0.0838979348205998
0.07466858226639324
0.061459533482552
0.04518536267976955
0.02696515247532471
0.008045038643243282
-0.010286879683818013
-0.02678963850516708
-0.040354490956395664
-0.05008012006231703
-0.055331873977628815
-0.05577978209514537
-0.05147197015498941
-0.04300398535370514
-0.031324703163349996
-0.017464598286854743
-0.0024350939910243925
0.01290568249469288
0.027751028831374976
0.04129054237867496
0.05292796043537965
0.0626211862285355
0.07106771516115418
0.07862324118888576
0.07842024115894479
0.0705003693591102
0.060809826000071183
0.04922187571281182
0.03550222446004264
0.019921255590645434
0.0031447944980025197
-0.013986276103089846
-0.030624088233333322
-0.04592427079765694
-0.05901111630441511
-0.06906273678495724
-0.07530953314652244
-0.07722388407717613
-0.07474419637465847
-0.0681488619168161
-0.05798901160947124
-0.04505093057399004
-0.030300195532535535
-0.014812978271585424
0.0003002993284903318
0.013972274165101996
0.02525144592018738
0.033365640811868484
0.037771971021844514
0.03819080070550987
0.03462192254832457
0.02734241280444945
0.016886444277711136
0.004007986619116
-0.01037072937692748
-0.025223206196039703
-0.03948915204400211
-0.052148307350668055
-0.062291161518469675
-0.06918106433590362
-0.07230284823931092
-0.07139401335620689
-0.06651065458495867
-0.05817412369915914
-0.04714590181329588
-0.034195784991858234
-0.020103820121925346
-0.0055816154697732314
0.008669322770837906
0.02194435553240041
0.03370189871516673
0.043801369367029656
0.05263099601564276
0.06037266286996329
0.0636204591131197
0.055900968843658874
0.046248122778570704
0.03462678345580326
0.021007224812735176
0.005708370288914172
-0.010677307783225159
-0.02741982089531784
-0.04375598505421053
-0.05891143689132062
-0.07210684328681881
-0.08263337720060528
-0.08989858394188717
-0.09353484063046391
-0.09349302449895057
-0.0899831756970231
-0.08343788870210118
-0.07448052529407174
-0.06387934469579737
-0.05249138651679215
-0.04120134153116838
-0.03085985236840931
-0.022226124606739575
-0.015918111625647987
-0.012373462194960766
-0.01182285954783702
-0.014277109445743908
-0.01952827956551093
-0.027165028120927772
-0.03660120675683646
-0.047116398501521405
-0.057906001202503186
-0.06813748990515421
-0.07700923877958175
-0.08380706131349817
-0.08795390016395008
-0.08904858535666434
-0.08689038839393143
-0.08151287358980931
-0.07325361023621846
-0.06264759084026844
-0.050296382264475976
-0.03683980081835281
-0.02289575931976044
-0.009072560975980333
0.004036180056346693
0.01594900189309535
0.026432736842217922
0.035583395662237116
0.04343425135638723
0.04972700538833983
0.0423904671037204
0.03302737998476824
0.021717801580539618
0.008633593228337922
-0.0058631978760073
-0.02125743908193037
-0.03693962233592613
-0.05225705392524438
-0.06654537995954618
-0.07916203279327223
-0.08954323847217203
-0.0972669480450471
-0.10209587473921357
-0.103985576233673
-0.10307727506839694
-0.09968455032367675
-0.09426860280677259
-0.08740279923683768
-0.07973000565238816
-0.0719164182726031
-0.06460547920301608
-0.058374953433319214
-0.05369993552398885
-0.05092331470189136
-0.0502353421128427
-0.05166262091208453
-0.05506761085308199
-0.060158235583897844
-0.06650809860914626
-0.07358587961338292
-0.0807926755485226
-0.08750517114868636
-0.09312073449999046
-0.0971016228412215
-0.09901367149120163
-0.098556553292148
-0.09558250124210796
-0.09010515342615225
-0.0823059251330852
-0.07251848351933965
-0.06118404974358694
-0.04880157678312337
-0.03588349939902935
-0.02293521266789479
-0.010437069415131537
0.0011954080490277096
0.011662499983083052
0.0208156842795988
0.028552336026186943
)
;

boundaryField
{
    "(inlet|outlet)"
    {
        type            zeroGradient;
    }
        "(front|back)"
        {
            type            empty;
        }
    "(top|hills)"
    {
     	type            zeroGradient;
    }
}

