/*--------------------------------*- C++ -*----------------------------------*\
| =========                 |                                                 |
| \\      /  F ield         | OpenFOAM: The Open Source CFD Toolbox           |
|  \\    /   O peration     | Version:  v1806                                 |
|   \\  /    A nd           | Web:      www.OpenFOAM.com                      |
|    \\/     M anipulation  |                                                 |
\*---------------------------------------------------------------------------*/
FoamFile
{
version     2.0;
format      ascii;
class       volScalarField;
location    "0";
object      nutCoeffs36;
}
// * * * * * * * * * * * * * * * * * * * * * * * * * * * * * * * * * * * * * //
dimensions      [0 0 0 0 0 0 0];

internalField   nonuniform List<scalar> 
1000
(
0.017347907072023473
0.01974152761657077
0.020287820903674095
0.016057839132253084
0.008569178862297328
0.0022008726542472397
6.297171280151709e-06
0.0023533718552822963
0.007223488570085442
0.01205210871599135
0.01577588946094275
0.01878152193383707
0.021527403029572328
0.02383854606736992
0.02543292951833378
0.02608808960264235
0.025652990401237714
0.024078916532645205
0.021439652920525114
0.017936531703138338
0.013886581095985485
0.009693816300195973
0.005806570467391907
0.0026647038925474626
0.0006437717446455321
3.2450008699499787e-06
0.0008469703177272202
0.0031032749589194122
0.0065292685019878016
0.010740559678139914
0.01526230768645952
0.019594277036173367
0.02327769337110217
0.025953739456207204
0.027403268393863305
0.02756234876687776
0.02651363310394299
0.024457235294389517
0.021709783241057035
0.018579466049212328
0.014694471818341527
0.009549829761874051
0.00396806503609538
0.0003508367958839086
0.0008770770063230948
0.005703106008738156
0.012474134253654198
0.017121330971750448
0.01747668134181333
0.01573438180802745
0.014790809199185235
0.017817290046250347
0.021138651824596247
0.020974550744163933
0.015716363543127724
0.008072984875515674
0.001937764345568164
2.9422847228418105e-05
0.002596273921738859
0.007562244076561112
0.012637211086755687
0.01677930858369949
0.020150875964198397
0.02302761097940487
0.025216064118738783
0.026431016043772765
0.026461695204785106
0.025212262195661916
0.0227297930692076
0.019214119751518946
0.015006440553779764
0.01055651336746547
0.0063719069556714145
0.0029544135232631723
0.0007328551085158003
1.4310016032904776e-06
0.0008738233062946522
0.003261732382983206
0.006882850282426926
0.011298630758271902
0.015976274826593754
0.020365413165391213
0.023974653117454423
0.02643624094288187
0.027546911762528502
0.027279887436644383
0.02576872935240193
0.02326884138630108
0.01998346755723879
0.01566995340135596
0.010158020128723638
0.0043710523420948146
0.00048157626001711504
0.0007113261422790291
0.0052965827183928576
0.012116161205874177
0.017640858624719463
0.018864189622425167
0.016507160543365283
0.013966799312041771
0.010277829638194987
0.013178744527192539
0.018158951882232106
0.022108530703352065
0.021320968488741366
0.01576864879582126
0.008162557880479579
0.0020501706767396648
5.610436549382723e-06
0.002011094134684797
0.005993354495809948
0.00982107014746027
0.012943098635112048
0.015754626838664135
0.01813971230776348
0.01979498992542832
0.02047213674086252
0.020023201582825154
0.018434853320037595
0.015844562403398522
0.012534294179705911
0.00890094282937128
0.005406678787705246
0.0025151457263337743
0.0006235843707390609
1.3236505297280173e-06
0.000745416623113256
0.0027622213130118808
0.005779117878606724
0.009385742028100934
0.013097594848358882
0.016431325434393115
0.018976900169661835
0.020454334801208358
0.020744918811523242
0.019893079130563263
0.018081469333114508
0.015586785004329785
0.012510957895578424
0.00837381037827583
0.0036189105559281307
0.00035158321325899514
0.0008026141056841888
0.005446405997671951
0.012252884079798465
0.017983208757427496
0.01977897966845713
0.01701030534887833
0.012721801315909512
0.010062188755442274
0.0052507792829134
0.00735801286700912
0.012299503681288829
0.018673129690683157
0.022541048422282137
0.02160867790024942
0.01624518350079097
0.008843518760602314
0.002733686546004051
0.00010504845021218965
0.0006139458871214965
0.0023765100723398746
0.004203132389728272
0.006112481224163199
0.00799609906061392
0.009594652994223336
0.010666512058016905
0.011031045508760492
0.010604922770808135
0.009423953197388289
0.00764540834799312
0.005528865295589484
0.003397921065274538
0.0015881647929711427
0.000390736602456112
1.305765095473815e-06
0.0004844239034773556
0.0017606556772579822
0.0036196351428211464
0.005757210970634616
0.007829590182753638
0.009514038497624494
0.010563443802267529
0.010844512575836403
0.010352327551480177
0.009200062385385552
0.007588081727783844
0.0057606253816035145
0.0038000261011691514
0.0015320288733381981
2.658466469383507e-05
0.0013289726320525699
0.006196906561251831
0.012944547779577193
0.018499863693202265
0.02033927146359621
0.017619357672069808
0.012054659653535558
0.007391937844872152
0.005319756850656696
0.0013939792826980183
0.0023996761576517743
0.005763945102913268
0.01194371957109324
0.018439188480689792
0.022226298254205485
0.021665321751308208
0.0169689902285239
0.0102569216277224
0.004464679853570921
0.0012169513272326
0.0001328612360086786
2.425687771942543e-05
0.00037302276197105763
0.0010412126520492517
0.0018663141704004928
0.0026637808824186726
0.0032619468323512833
0.0035350107143152258
0.0034274257543314333
0.0029645051142951737
0.0022466557706058146
0.001428047146023356
0.0006837368376414764
0.00017207762821082586
3.357932774146934e-07
0.00020108933408337162
0.0007248886747753041
0.0014511116086383471
0.0022149034247471136
0.0028442316994097064
0.0031986149653731393
0.0032003740321537833
0.00285124691301747
0.002230677618820292
0.0014768078629195803
0.0007553497894950166
0.0002242473597435108
5.127544475329592e-08
0.00047746802968651897
0.002835206153316161
0.007768623562085173
0.014079638379158007
0.019057537382139268
0.020439485168080827
0.017633331375588077
0.01185838652912764
0.00592984410356661
0.0025311112612933073
0.0014718608756165916
5.918033757919748e-07
6.332265597998653e-05
0.0011139066203090509
0.004819082171040278
0.010813044133309808
0.016913018149743615
0.0208270573473203
0.021059110621534503
0.017625422249072407
0.012358300382054325
0.007593102337516577
0.004509292442187209
0.0026472885406360943
0.0013558717211207636
0.0005246851151244457
0.00010512555320538124
4.3197788552270555e-07
8.916133417073455e-05
0.0002508965993996926
0.0003889409955882883
0.00044545908930275567
0.0004062751779241598
0.00029496071452907104
0.0001583594423245499
4.770803218586154e-05
5.376767096643547e-07
2.8250923147980905e-05
0.0001128096776863585
0.0002135325498144742
0.0002822450829976305
0.0002825522485493811
0.00020758843387120047
9.067573119843788e-05
5.02945919075203e-06
5.162424683200309e-05
0.0003377115537861314
0.0009512227564885449
0.0019375421656329123
0.0034027876392164467
0.005995177436193069
0.010307688470691807
0.01544306461960999
0.01923790809933122
0.019725344913293818
0.016561262033954735
0.010955213225266346
0.0050811978963366386
0.0012489712033254422
8.598466937554308e-05
2.1077219577078635e-08
0.0014602271377024045
0.0011021709463110718
0.00014672625388742017
0.0004729476053167352
0.0034350662619554158
0.008446434162063546
0.013906208062070312
0.017951763991971032
0.019107554350196055
0.017300988474014928
0.013958607427154506
0.010706973832008481
0.008030324013837443
0.005741321945399544
0.003850209997275627
0.0023948745626245415
0.0013592961420837016
0.0006864060498321339
0.00029536145597853136
9.942363086536658e-05
2.0929589048350362e-05
8.013718805593165e-07
1.6513989372674626e-06
5.215163465393119e-06
6.2407146165253755e-06
5.663081735755437e-06
5.7777122274882e-06
9.224643687406731e-06
2.215546262504716e-05
6.0339514752438434e-05
0.00015563883493871833
0.0003596739275414938
0.0007418708203208358
0.0013805361706069551
0.0023477212534750843
0.0036907822819081944
0.005415155200907092
0.00747305293399709
0.009863882804789708
0.012879730698458745
0.016214993281407665
0.01833121270670827
0.017691668234203158
0.014105126427543574
0.008850403812653946
0.003768469790407976
0.000589851662072554
0.00011148034066445733
0.001079817552493425
0.0015026434111026765
0.0050932315106583664
0.004941320820399154
0.003075878524319889
0.0007724738508048168
3.442083495886814e-05
0.001616868715511727
0.005162958227998488
0.009579911202721371
0.013252579733332605
0.01483717663903314
0.014203862402904275
0.012235298791098583
0.009911508375065296
0.00769186903618263
0.005718683118190431
0.004060466724903683
0.00274280092050421
0.0017538655924087692
0.0010543979885941455
0.0005896950467361474
0.00030107958038434914
0.00013486435008253994
4.781027603455943e-05
9.145115547416914e-06
1.2249353611067263e-07
1.251771863568843e-05
4.740475471578364e-05
0.00011503580271401592
0.0002358598173464662
0.00044187324258637115
0.0007769037535286453
0.001294284858025459
0.002050775091545129
0.003096664044796152
0.004463365704618444
0.006150869956544198
0.008118433284686154
0.010281336784554968
0.012503050887261188
0.014425959897616887
0.015168291717922291
0.013778409685057775
0.01021863327822096
0.005717919414205613
0.0019286194882834535
7.873323374918767e-05
0.0006787763279396951
0.003059331274970548
0.005123075275510696
0.005413486029898239
0.009422449223764758
0.009919235852159612
0.008428429362800067
0.005313939910163115
0.002180919818431535
0.0002841426269660215
0.00019710678052034376
0.0018863304584019322
0.0045937068264022135
0.0069902404337296754
0.00802117944021972
0.0075318361202647375
0.0062912459345937696
0.004992783779794104
0.003807691710057658
0.0027842590723162136
0.0019466377852083356
0.00129658068716368
0.0008182593256414327
0.0004847919448242268
0.00026489956421657594
0.00012842608477866437
5.004547169341825e-05
1.109210911803686e-05
1.2192096354924708e-08
1.2135451184768931e-05
4.941167161788089e-05
0.00012044236525756246
0.00024072503084151577
0.00043264303913016636
0.0007244953137650888
0.001147905172812494
0.0017332185180954137
0.0025031783663061616
0.0034657891750968575
0.004607891203764039
0.005891275379746863
0.00725278853606186
0.008510686548485805
0.008979661785436207
0.00788387901050071
0.005325667805840148
0.0023405928296253665
0.0003344889649210198
0.0001889033963454328
0.002031722609734004
0.005325177610871018
0.00875745946539805
0.010554975656774672
0.010220561673759305
0.012777384861835793
0.013999175614800238
0.01373559026375642
0.011632507070143999
0.008366884718394403
0.004897327296086745
0.002026992264544566
0.0003404168936338841
4.335772027257679e-05
0.0006805496205500104
0.001377533540974123
0.0015246312478765388
0.0012724764278656217
0.000972443010851168
0.0007049158716531064
0.0004821737128813115
0.0003092486410359732
0.00018446254598667236
0.00010116384340992922
5.0076424458313054e-05
2.1586473852533556e-05
7.42174874579571e-06
1.4950458511747622e-06
3.0375189368556226e-10
1.0795575436601521e-06
4.428040918220359e-06
1.111172356215986e-05
2.3686651939298915e-05
4.6516157562994735e-05
8.603438792031871e-05
0.00015065048057068256
0.0002500346492640331
0.00039366998797349097
0.0005887809437696621
0.0008380207525308533
0.001137437271587783
0.0014753693721640097
0.001832707065293294
0.002111729897759148
0.0019045203020633882
0.0010268755373167666
0.00013688422292665328
0.0002103578568866884
0.001806586221857106
0.004765140711526882
0.008489005450219017
0.012122666322211895
0.014613951817728198
0.015169965441183215
0.014096753067580731
0.013961594553216527
0.015624261889989737
0.016682793871009224
0.01650169880401447
0.014900468942082237
0.012203349333096166
0.008915160312447842
0.0056257703381437695
0.0029689699863156595
0.001321348430020514
0.0005706751554747248
0.00034838025943040193
0.00031748357215379637
0.00031182075446463593
0.00030321975011338967
0.0002899189552048001
0.00027027362946296544
0.00024330337704754672
0.00020918644303001823
0.0001695176332105251
0.00012722039412003567
8.608993535042218e-05
5.008369700968486e-05
2.255658231123984e-05
5.652987336988602e-06
1.8745041818935873e-09
4.748889483373556e-06
1.7872587059218052e-05
3.666474363644213e-05
5.824987638221283e-05
8.00373402578824e-05
0.00010004718524494226
0.00011706892289909776
0.00013067410739471734
0.000141099567335091
0.000149052550832327
0.00015548262679232372
0.00016137113338656993
0.00018822306455362542
0.0003763327045534569
0.001071428140853334
0.0027127268242219077
0.005477029043605497
0.008995174028465551
0.012593437798071073
0.015635354844788684
0.017571346064622337
0.018033790039908803
0.017179389478010103
0.015650062741821735
0.012681611936941818
0.014316360524341298
0.016136581401527177
0.017601187123134295
0.018087104935819963
0.01740872306543378
0.015660642477657225
0.013116864455799954
0.01026635882607977
0.007712788158978861
0.005875926607465496
0.004825292734143481
0.004187168557855413
0.0036110514404413805
0.003050777526332379
0.002521154309487651
0.00203220023986538
0.0015904014980247924
0.0011998748641263914
0.0008631968005952631
0.0005818615002118283
0.00035647973048968733
0.00018687468450955867
7.222396061076819e-05
1.1329657828104566e-05
3.011326988452618e-06
4.6533981910840095e-05
0.00014196260800605127
0.0002903261674443683
0.0004935245508202329
0.0007539205469996857
0.0010736677245769383
0.0014537846615761496
0.001893085224708606
0.002387101839907321
0.002927100415281174
0.003499411921125381
0.004085212371726865
0.004734493431650874
0.005832256871526114
0.007792293829926008
0.010551775765489954
0.013662597509504729
0.01646940165877692
0.018447753796440466
0.019315679476904223
0.01898012386481172
0.01763634904183342
0.015939583605552757
0.014447017197484105
0.009561672715988028
0.010758389304361321
0.012540798083572377
0.014613494465942916
0.016329240944537093
0.01731322841288309
0.017429036389397717
0.016674589348922787
0.015184239237823981
0.013278286641255776
0.011355626546937036
0.009673297400301968
0.008173027645966866
0.006753306001357102
0.005439866321113249
0.00426813834497474
0.003256125471794973
0.0024076493374367933
0.0017161349312022492
0.0011683017665415393
0.0007473888041290698
0.000435814345778127
0.00021726618362684298
7.831307231045731e-05
9.625615436231122e-06
6.857088022362925e-06
7.121533886412887e-05
0.00020968915154020805
0.0004348323601799237
0.0007639551038419944
0.001217557737341984
0.0018169073765918324
0.0025807330126728736
0.003521302688326085
0.004640270548364339
0.005924902538662863
0.007345349929082158
0.008853709893566368
0.010422794816915246
0.012190283414770606
0.01423685366067263
0.016272937791076896
0.01785840886580603
0.01865550261214784
0.018545432502082345
0.01755604279144696
0.015842528922299103
0.013800041969496482
0.012114870711903557
0.011088830390466332
0.005778866740789144
0.00636979628704698
0.007535080090526747
0.009176711424210601
0.010846498569332633
0.01223176019735444
0.013176273686871706
0.013588215560654412
0.013374921890185146
0.012508503722130311
0.01109691334852492
0.009328699636945088
0.00747179640615719
0.005762938524414441
0.004289191146169245
0.003075801249065644
0.0021207463690906822
0.0014017778177867967
0.0008842094118210645
0.0005281642087094218
0.00029442462604214423
0.00014848329516282287
6.280071251741293e-05
1.7574864464344154e-05
5.880559212173108e-07
6.7369484558007705e-06
3.7775455171737293e-05
0.00010253137095461385
0.00021749786036451665
0.00040732880580845055
0.00070455816605661
0.0011478574616804386
0.0017783882692066068
0.002634274174298939
0.0037437182782910578
0.00511772058030009
0.0067436967610333305
0.008581194310519142
0.01053045844884325
0.012344914992500414
0.013746107407390696
0.014540161590786742
0.01463327692783581
0.01408950705897731
0.013039030253932651
0.011592394513568461
0.00990834449237495
0.008303375041882286
0.007250008690278237
0.006849753930297059
0.002525786769265835
0.002626723455085992
0.00306492516739256
0.003821513707387295
0.004673258993497916
0.0054550511841063
0.006085089187304928
0.006505850978603865
0.006606692867965756
0.006251156032053883
0.005389581287190775
0.004126264230902133
0.002809632568102278
0.0017366585069800297
0.0009589540895179279
0.00045079038171333814
0.00016249936061526926
3.268920956652343e-05
6.787328408497007e-08
1.2910839806127827e-05
3.4847499686086217e-05
4.645020328265038e-05
4.2967795976418e-05
2.931232871212575e-05
1.3960266347608077e-05
3.598215905913698e-06
7.83323429069215e-08
5.549220258004211e-07
7.141605113561727e-07
6.472347015775651e-08
7.590088504519407e-06
4.588979036722286e-05
0.00015228381746720476
0.0003761096528623327
0.0007723482565010208
0.0013925664846313056
0.002274720807050646
0.003433625604157346
0.004804591371969965
0.0060602794684185566
0.006836927716381785
0.007057880909205873
0.006816705432225275
0.006290669386563538
0.005610596184340209
0.004831827244336601
0.004023072119205157
0.0033404310023340783
0.0030192938211649452
0.0030900941333335593
0.000557269060398768
0.0004672633265337725
0.0004836137218719224
0.000589965486651775
0.0007189568218407339
0.0008247747551045028
0.0008903975925129138
0.0009075013339077839
0.0008465038608018228
0.0006684033064457923
0.000383834583112389
0.00010087637750873228
1.3994827655490897e-06
0.00014233404041239696
0.000458345653522893
0.0008556205127618331
0.0012362980602940977
0.001515630653992691
0.0016363365434344677
0.0015775736087236798
0.0013569027985355835
0.001024849502124056
0.0006531173451539429
0.00031876156317984746
8.759324633873606e-05
3.1845382133805867e-07
6.440631949229658e-05
0.0002534324712664918
0.000513929208378914
0.000778053938558237
0.0009791226515605458
0.0010665507436962898
0.0010171003024184548
0.0008404105676321092
0.0005780635369302124
0.0002967974342462663
7.733734479037162e-05
8.974599461945749e-07
0.00012639089446043567
0.00039415009255407574
0.0006315260861337001
0.0007541794438977473
0.0007738738779141869
0.0007415354358047383
0.0006883410232587919
0.0006178093730324632
0.000538051555726162
0.0004871992484510815
0.0005392574767723339
0.000730326123754913
1.1633846942117188e-06
3.358565296360901e-05
8.451672560297015e-05
0.00013221473181333925
0.000190636502048982
0.00027651677004060526
0.0003992844531336498
0.0005661332294254623
0.0008018628643276938
0.0011663172258069095
0.0017518135658656589
0.0026567138019394886
0.0038233364080095074
0.005031679329166888
0.006106850774497461
0.006907195769072326
0.007317278648307783
0.007267778432985174
0.006749634300024965
0.005819601562440018
0.004595489209568775
0.003241118232841994
0.0019429112870551137
0.00088173460367174
0.00020474037109654536
2.2540998368595186e-06
0.0002939421010396519
0.001026783763995985
0.0020850088044632314
0.0033098711342430137
0.004525186456765069
0.005563994854518287
0.006291668025131534
0.006622311543308473
0.006526757020514599
0.006032093054560188
0.005213913978646645
0.0041831043621071064
0.0031036101851330843
0.0022221862120921066
0.0016299892215666577
0.0012385434863458138
0.000957050040616182
0.0007255306099095334
0.0005263443223241961
0.00036489942302304814
0.00024001662642690204
0.00013607094161325345
4.2509581533224444e-05
1.1780274563055783e-08
0.0004647923778269983
0.0008063160314015312
0.0012186665963898856
0.001696468762163187
0.0022843747164052997
0.0030178433603713886
0.003906770688634312
0.004945601308922019
0.006144462356275418
0.007543357030121734
0.009184470382425767
0.011060855336607528
0.012964684906759578
0.014578750520961943
0.01569284170780498
0.01615988822306623
0.015887473806658885
0.014856958969002621
0.013134490335935651
0.010871115832099293
0.008290670502625616
0.005666142993737484
0.003287271892967057
0.00142384630683611
0.0002902910628430134
1.7165542685538196e-05
0.0006342246425179772
0.002067687353782148
0.00415187470336612
0.006652845196612069
0.009299648125058218
0.011818131913819207
0.013961933389592444
0.015537190749568245
0.016418567403237928
0.01655604542632251
0.015973279262445184
0.014758770350768896
0.013089858289473915
0.011300864404840582
0.009633055000313412
0.008108316240067666
0.006699312621380457
0.0053867587695772485
0.00419201148232237
0.003156447883793333
0.0022967405952692204
0.0015886826225452438
0.0009896747329626795
0.0005155006822382016
0.0013293495493996036
0.0019900662280051508
0.0028232465379247917
0.003846835659283349
0.0051028867003914844
0.006616928219134195
0.008384788706333992
0.010376313672966245
0.012549120674549616
0.014850129601824564
0.01719624118048701
0.019452565096072023
0.021389925602674453
0.022757349282365294
0.023377029617265337
0.023132725455511944
0.021978305500210744
0.019953045247499582
0.01718771523172363
0.013899224747888907
0.010373292407568948
0.006936551767157579
0.0039213815552286094
0.001628096657392178
0.00028990763656526827
4.5666215216249735e-05
0.0009242942098787995
0.0028430018953271036
0.005619048113218846
0.008992849322307964
0.012658385782969047
0.016296501197723922
0.019606342214544423
0.02233182083227887
0.024280807298433283
0.025336356481055214
0.02546043113063117
0.024690685105365526
0.02314672398401828
0.02105956544322677
0.018668402533287703
0.016132421177798523
0.013574446841161849
0.011097606213244791
0.00880043631997113
0.006767341870574305
0.005043706221422341
0.003626227727796874
0.0024784520673696154
0.0015846305958656373
0.002057993611636146
0.0029143074861695695
0.0040027247325712745
0.005347124057712311
0.006966289791742842
0.008860145768882038
0.011002977140761832
0.013341067169693317
0.015792032635396445
0.01824267447115017
0.020547688426256972
0.02253582295089131
0.02402841168532443
0.024865472226288744
0.024922188917076312
0.024125688092347608
0.022471645899847032
0.020034617742335413
0.016969538408349014
0.013503129542514359
0.009915283818490493
0.00651247046772868
0.0035963804627375346
0.0014320170327716674
0.00021955415471089552
7.360008789818336e-05
0.0010124195334197412
0.0029581469128131224
0.005747287295027487
0.009149716729670633
0.012892941080411998
0.01668852492906428
0.02025741992970069
0.02335186959016259
0.025772381916581447
0.027379210111002215
0.02809839720323769
0.02792270223322787
0.026907692243398645
0.025166735257410807
0.02286271245520976
0.020183019640260147
0.01731525918185288
0.014431529509838267
0.011679649375214643
0.009175589194431967
0.006995283814194036
0.005171391772982806
0.003699309768879263
0.002556011700570776
)
;

boundaryField
{
    "(inlet|outlet)"
    {
        type            zeroGradient;
    }
        "(front|back)"
        {
            type            empty;
        }
    "(top|hills)"
    {
     	type            zeroGradient;
    }
}

