/*--------------------------------*- C++ -*----------------------------------*\
| =========                 |                                                 |
| \\      /  F ield         | OpenFOAM: The Open Source CFD Toolbox           |
|  \\    /   O peration     | Version:  v1806                                 |
|   \\  /    A nd           | Web:      www.OpenFOAM.com                      |
|    \\/     M anipulation  |                                                 |
\*---------------------------------------------------------------------------*/
FoamFile
{
version     2.0;
format      ascii;
class       volScalarField;
location    "0";
object      nutCoeffs35;
}
// * * * * * * * * * * * * * * * * * * * * * * * * * * * * * * * * * * * * * //
dimensions      [0 0 0 0 0 0 0];

internalField   nonuniform List<scalar> 
1000
(
0.004355902974144708
0.005444160777624937
0.005970775941232001
0.0059390336738321635
0.0056809370151307955
0.005297082520096921
0.0047385282100253535
0.003999530097985374
0.0032280724890027934
0.002643811730974515
0.002384936017675114
0.0025057045989529477
0.0028925553146389974
0.003348246081616326
0.0038160309770455766
0.004287789176520827
0.004755964115263506
0.0052136838883074495
0.005654531166243789
0.006072065757712263
0.0064592802566786674
0.006808186828680634
0.007109756943981716
0.007354383027753157
0.0075327912940274366
0.007637250416819355
0.007662817402208064
0.007608187342506133
0.007476005487691864
0.007272462509691956
0.007006369245214724
0.006687916206081654
0.006327536388691624
0.005935030476187943
0.00551913270673379
0.005087490905954261
0.004646881068311469
0.004203523355423514
0.003819230981645071
0.0037223880720947755
0.004047841494466113
0.004750150172971209
0.005743585534901559
0.006878731195624912
0.00802769099084113
0.009156190217672099
0.01019839416592195
0.010784996024180907
0.010197098428675245
0.008445970991676998
0.005175712667733927
0.00646907600397537
0.007184167200414325
0.007284070514934659
0.007140895377396478
0.00691333525115106
0.0065579974912470165
0.006012818155718914
0.0053535718754552705
0.004801253612942675
0.004591719205119255
0.004897578143158252
0.005600777550099265
0.006412234226916192
0.007246549067238649
0.00809021687754404
0.008929338933306273
0.00974977057997955
0.010537021330583481
0.011276015914725662
0.011950894633950427
0.012545098077333262
0.013041817339651525
0.013425092540910231
0.013681211136570776
0.013800302151265802
0.013777682002249542
0.013614579967951651
0.013318079844511633
0.012900237238670358
0.012376681314460094
0.01176496176834081
0.011083132811149456
0.010348679737913587
0.009577965548840845
0.008786063873631766
0.007986765994357421
0.007192619910520085
0.0064958718982220075
0.006225878217636383
0.006553822459076553
0.007365471160778882
0.008493465575635503
0.009720547551499
0.010890545329504167
0.011960758981395824
0.012834273218293061
0.013101461940121687
0.012095077276375803
0.009958992446935204
0.006021348255633471
0.007540145961424717
0.008508170852673153
0.008816733101070128
0.008829293903007726
0.008758401649838068
0.008605630764750946
0.00831412304576909
0.007923255204053016
0.007619193138427616
0.007669411508662433
0.008336678494916365
0.00951511221475587
0.010843543460077569
0.012208237263049256
0.013584516426262372
0.01494580136706866
0.016264472833409465
0.01751264942517969
0.018662836285773955
0.019688559425968505
0.0205651332947946
0.02127056282125649
0.02178674959743076
0.022100737739805025
0.022205743192217884
0.022101750661020256
0.021795403404736735
0.021299189053253214
0.020630103169896573
0.01980810833409258
0.01885470071690501
0.01779195105815952
0.016641978542584035
0.015426789150545147
0.014168363318577612
0.012888553146698787
0.011608763881125576
0.010459569154407213
0.009893533461826259
0.01012320313127066
0.01094618242415913
0.012102676910103478
0.013305281905595039
0.01436138373163427
0.015206288350395844
0.015714049330783814
0.015478733721580215
0.013957157474115913
0.011430569284938255
0.006817330051765434
0.008569673650792382
0.009856293029769475
0.010482141475005542
0.010746891968513764
0.010884138120396477
0.010943815510152777
0.010911853739715397
0.010848976656201787
0.010934140598932815
0.011431034186134387
0.012633228539261125
0.014434867781244974
0.016426195982205544
0.018468004255552714
0.02051835838635399
0.022531907349480546
0.02446227313269891
0.02626441357868259
0.027896689511066643
0.029322613681826155
0.030512124351792916
0.03144247252639501
0.03209882686209744
0.03247439576886108
0.03257003988963506
0.03239335668837978
0.03195731279743631
0.03127857585392413
0.030375967553239895
0.02926930395200336
0.027978851366973905
0.026525566964874778
0.02493173309787885
0.023221808836014747
0.02142307968692497
0.019565690663388324
0.01768189707783778
0.015943632398769773
0.014933384196879472
0.014912986733637106
0.015592791662693662
0.016617221180141268
0.017618857154813893
0.01835637597165671
0.01874242556916513
0.018649086932638368
0.017734708863049703
0.0156369996619447
0.012749733903286339
0.007480118006734713
0.00945465266327547
0.011106458889525363
0.012162911898391717
0.012816338797061037
0.013276373885093506
0.013617905627121885
0.013871339331351288
0.014150833443529917
0.014674022208619374
0.015713307942908223
0.017557322325099458
0.020074440433762154
0.022816801009175363
0.02562251577787237
0.02842935834644723
0.031170627761921404
0.033779435507078924
0.03619301951276397
0.03835635295358272
0.040224840605282745
0.041765836672189055
0.04295904018360409
0.04379586942100711
0.04427789393986482
0.044414646540389555
0.0442209463948646
0.04371428097660507
0.04291260148555686
0.041832877228159496
0.04049085779014822
0.038901732831677416
0.037081897242354576
0.03505104807779077
0.0328339849468482
0.03046205145470468
0.0279731683865006
0.025410890445344725
0.022984077675793253
0.021390395104932347
0.02094549627209027
0.021285871299313634
0.021957543009109563
0.022506554496032685
0.0226497037007797
0.02230256923747728
0.021380825242056065
0.01966155402082242
0.016983681861734143
0.013802648415640616
0.00793684514430963
0.010098722044118661
0.01212432241085017
0.013694820788470792
0.014877204527941558
0.01581641061791727
0.016577004497075335
0.01721034033523342
0.017879656086099368
0.018864092782566594
0.020472751262524964
0.022988536006936885
0.02623963576440762
0.02974347286110067
0.03331955804803648
0.03688738340169457
0.0403615227296991
0.04365759024936243
0.04669806131375598
0.049417108733537045
0.051763886731724856
0.05370408874084719
0.05521957628825859
0.05630659005904495
0.05697251377485627
0.057232103991854154
0.057103502359108015
0.056604834014641295
0.05575192134521217
0.054557406982212384
0.05303157856585703
0.051184301493380706
0.04902801009426929
0.04658066196973551
0.04386821835567183
0.04092611517783472
0.03779927748046544
0.03454092718938248
0.031384416219707986
0.029103276202445776
0.028054567900558165
0.027815811317313425
0.027842888996104598
0.027618095102445353
0.026857784270343566
0.02552517943150275
0.02362057022996646
0.021062850357878065
0.017868041662257576
0.014490369430740158
0.008143170501042196
0.010435239733777106
0.012794348396320161
0.014900600233640492
0.01670948916736714
0.018279472956606244
0.019632460128388093
0.020806884007073777
0.021984050472333014
0.023492296779930307
0.025687733934531026
0.028858134516196655
0.03279816750654815
0.03700336271819249
0.0412828779504136
0.045544551953464
0.04969149257792846
0.053628781021434896
0.0572698063248536
0.06054159027340923
0.06338816456418593
0.06577207448965744
0.06767349128740058
0.06908772014136899
0.07002122178562348
0.07048702789531867
0.07050043191319147
0.07007556750578738
0.0692235889968475
0.06795272421350869
0.06626987538284812
0.0641833968616527
0.061706459369384806
0.058859876431649125
0.05567413898652217
0.052190189352868746
0.04845903294201714
0.04454019125905961
0.04067176912285123
0.037636526511132765
0.03579643339381643
0.03469280965633508
0.03373338853284539
0.03240372198501002
0.03048414529771592
0.02802195185720848
0.025112168297748677
0.02179582016965164
0.018208265792637984
0.014747286307047202
0.008093065306480652
0.010442659618798327
0.01304859188375346
0.015634071610909055
0.01808288860446479
0.020372890344083044
0.022467923496306542
0.024364329352652203
0.026218500977623183
0.028366007108833566
0.031188911889305587
0.03497783358314817
0.039516607963372995
0.04431014314867634
0.049170669395328666
0.054003527475032384
0.058710180829203706
0.06319415905661852
0.06736685051855952
0.07115209349990134
0.07448924686737535
0.07733447944402984
0.07966007731081344
0.08145225753314408
0.08270762556380917
0.08342933284144412
0.08362354628694729
0.0832969312576835
0.08245576125698602
0.08110658276895269
0.07925823111241234
0.07692427889210822
0.07412560036003694
0.07089193323131163
0.06726235473949062
0.06328489848223703
0.05901530796663019
0.05451562391811534
0.05000371018049183
0.046182026205227544
0.04336730115427602
0.04111405385823282
0.03886784073150478
0.036210149412999604
0.033036540413311735
0.029478649853156874
0.025696780306694696
0.021802883135408554
0.0179852647002219
0.014553554486034388
0.007815545296801896
0.010144831605633746
0.012880501570148733
0.015818195963561814
0.018818662130169785
0.021808793875203278
0.024703448344024184
0.027446681951116512
0.03013310547047596
0.033048531509066656
0.03655068697605045
0.04090770453888279
0.04592014196954638
0.0511488229169313
0.056425906605254435
0.061663714049005225
0.06677194785957237
0.07166179212346194
0.07624957410511245
0.08045971739814332
0.08422694494434044
0.08749752612767595
0.0902294132114947
0.09239161576007694
0.09396271234282358
0.09492921167770685
0.09528402264863065
0.09502557209814642
0.094157757153424
0.09269070554873386
0.09064200672354499
0.08803766996428766
0.08491260720748237
0.08131015045369296
0.07728054187193471
0.07287929895137768
0.0681654081317009
0.06320039452176145
0.05815828714724143
0.05357124421927886
0.049670834074334015
0.046102558289286645
0.042453575551016205
0.03847327180718893
0.03417822363588886
0.0297457104496566
0.02534963385802505
0.021117598429872656
0.017240628514662473
0.01393582444572342
0.0073598440011237685
0.009596133539523438
0.012336697521490372
0.01545821520562027
0.01883729992771983
0.022387343883093387
0.02600179313005569
0.029585926304524803
0.03315872333055771
0.03690753777591898
0.04110294021628995
0.04594593786754562
0.051274887972315976
0.05675508023526507
0.06225494753768082
0.06770143799935456
0.07302054476908884
0.07813830417412003
0.08298141824547604
0.08747790949697236
0.09155805557979217
0.09515574942427016
0.09821012639712258
0.10066761459683247
0.10248381181079896
0.10362518589038769
0.10407046681556238
0.10381156674496887
0.10285403563223088
0.10121703795291274
0.09893258199236353
0.09604392113780921
0.09260335376105729
0.08866937992267758
0.08430361923414449
0.07956843598475977
0.0745252210999768
0.06923427347826394
0.06381287303159631
0.05856970744668583
0.05364066843464908
0.04883518302804643
0.043950056765524916
0.03891593449905115
0.033831632462820206
0.028868215409633954
0.024169268237401054
0.019842780981758092
0.01605868020872648
0.012956451724031467
0.0067773945118000355
0.008860345469075912
0.011492872538471505
0.014623988964863895
0.01816598603498973
0.02204761709903972
0.026170799131043414
0.030429066680897662
0.034778116370572
0.039287363452152425
0.04409344383401303
0.0492869849555385
0.05475170295190162
0.0602893054052315
0.06581454302284798
0.07127298741993107
0.07661069507853045
0.0817717659864248
0.08669567973778397
0.09131549501314004
0.09555749168540831
0.09934286306258056
0.10259122589679016
0.1052257833134617
0.10717900278084364
0.10839818317594924
0.108849749915623
0.108521876950153
0.10742486964552464
0.1055896360989093
0.10306438630513162
0.09991016099833933
0.09619598595013872
0.09199423978840351
0.0873766424053485
0.08241181996985056
0.07716421193672209
0.07169459156356799
0.06606748661960685
0.060376118957827546
0.05467976741920198
0.04897529879430999
0.04326588443917573
0.03762062250361982
0.0321679635594608
0.027038240224902865
0.022326999613327198
0.018113281475001772
0.01454243296943085
0.01169698256035546
0.006109902498625441
0.007994898562297823
0.010429516753090845
0.013416824112180387
0.016907408539063303
0.020858841393811247
0.025201211755738237
0.029841518647784
0.0346987204984507
0.03973748150274391
0.04495140955400193
0.0503039356304551
0.0557197268931297
0.0611385870376186
0.0665212252429888
0.07183062225583878
0.07703094047861193
0.08208209107693647
0.08693450070248675
0.09152540657910155
0.09577769179778782
0.09960205838827277
0.10290226407675786
0.10558309540215757
0.10755926018590285
0.10876398548482558
0.10915568239032998
0.10872141368752337
0.1074770045798739
0.10546382781615393
0.10274334884466513
0.099390389165498
0.09548657771335989
0.09111473651482326
0.08635466677951054
0.08128108085236846
0.07596298359291158
0.07046445481740062
0.06481341674402577
0.058945808600446244
0.052875436497733776
0.04675060442914684
0.040720002865789334
0.03492765967243111
0.029494797567713043
0.024503960131146602
0.02000816690171265
0.01606368959060145
0.012794970802872157
0.010244267972334789
0.0053876090539279895
0.007046473311285604
0.009219956843737373
0.011944081105995145
0.015199937294541083
0.0189741568770319
0.023231647760587174
0.027908214098358888
0.03291369554717748
0.03814193833105909
0.04347102875966232
0.048754569381429226
0.05394763167137289
0.05910215549073109
0.06421480040347728
0.0692600647348552
0.07421312265497415
0.07904277135980321
0.08370496234440061
0.08813839218805314
0.09226326682199383
0.09598405048435693
0.09919607838452013
0.10179503237153549
0.10368769776945466
0.1048019829377414
0.10509437464727123
0.10455352343456123
0.10319970022964828
0.10108053570153012
0.09826437696598671
0.09483273515789793
0.09087317147417732
0.08647383149336399
0.08171953720898562
0.07668993927685169
0.07145902324059633
0.0660954694832348
0.06060852746701129
0.05484716111524657
0.0488060642110712
0.04272057574755462
0.03681121819860371
0.031246095371197942
0.026125410190195094
0.02149391397977286
0.017376200952294342
0.013814103248663752
0.0109126004998465
0.008683687129734335
0.004634775839769522
0.006055219081167429
0.007930816547863248
0.01031120358932591
0.013195911940263495
0.016592546495985724
0.020496479363416795
0.02487648356660892
0.02965493216363075
0.03469574472748544
0.039810131439356015
0.04478241777551503
0.049586452649228105
0.05434537723413718
0.059077037584370454
0.06375982717961731
0.06837114429664047
0.07288043518944694
0.07724308668269031
0.08139655655303588
0.08525983399289921
0.08873693657989902
0.0917239524384375
0.09411886015642819
0.09583214524346167
0.0967963340386805
0.09697273360865091
0.09635414724922559
0.09496364466091202
0.0928499737938687
0.09008102170603004
0.08673675077145844
0.08290304003095829
0.07866690676310885
0.07411330360731808
0.06932349934519312
0.06437402404987437
0.05933637288529351
0.05421272447680206
0.048818422224156624
0.043143682003422966
0.03745500355517975
0.03199137458909341
0.02691718731048714
0.022311118698450164
0.018192948923951444
0.01457020407490315
0.011473917591953061
0.008987141699097654
0.007098285356153613
0.0038760531900425194
0.0050600643889397185
0.006625815868278375
0.008621950845515225
0.011054884417293062
0.013941581340236415
0.017296120621533573
0.021113852826805876
0.025340636917580473
0.029846739876779386
0.03442999332477462
0.03885560226051887
0.04310654021113182
0.0473323594834867
0.05155741558640045
0.0557584422301906
0.059908980704182574
0.06397393798934803
0.06790500426638915
0.07163826572027983
0.0750948073135108
0.07818464633314894
0.08081360914220079
0.08289209096903563
0.08434401120007108
0.08511445850311142
0.08517453633888808
0.08452281700234109
0.0831834472238264
0.08120190894762004
0.07863949965761839
0.07556775230238937
0.07206385297857655
0.06820714873643159
0.0640767551996742
0.05974992518068032
0.05530074653547312
0.05079875050114293
0.04624371713156606
0.041449376773327475
0.03640751316629167
0.03138007911288952
0.026595152416895355
0.022200542391516708
0.018255842080041985
0.014764604401529281
0.011723340670646473
0.009152256864672045
0.007109998221838666
0.0055687466259171795
0.003139016553236691
0.004100004553634601
0.005365136875156609
0.00697382528790522
0.008931739081772506
0.011255092868400091
0.013963190448900268
0.017064909651452676
0.020528438304117852
0.02425207514580486
0.028062800237300872
0.031752839333334934
0.0353087453135108
0.03886695515755874
0.04244726550766248
0.04602342131654529
0.049564422287331815
0.0530310541179803
0.05637328148665235
0.05952955318129155
0.06242830708950697
0.06499197473581021
0.06714288762553022
0.06881019698890539
0.06993647535403273
0.07048290943381812
0.07043206190481659
0.06978814269096335
0.06857480239593494
0.06683164168519155
0.06460996238532603
0.06196900622497692
0.058972857814072965
0.05568820398384098
0.052182758220366894
0.04852379651277847
0.044776632384156016
0.0410028779126126
0.03720132654320538
0.033205239522771345
0.029009958990323964
0.024848657696658446
0.02092001838859492
0.017346772806812058
0.01417068838357177
0.011384860467102468
0.008978742317345714
0.006962070583350876
0.005370474462286822
0.004169551666459274
0.0024522877212413406
0.0032111881521749773
0.004200261242004859
0.0054472760877561565
0.006954515762277288
0.008732351000225874
0.010795834878524733
0.013155222353514852
0.01579272846107455
0.018639064000898767
0.02156999339770734
0.02443178929976908
0.02721239716354421
0.03001104475847642
0.03283758307505442
0.0356652551616283
0.03846243365401446
0.04119088726788016
0.04380483463298366
0.046251225014790294
0.048471714902988676
0.050405993500135304
0.05199633020494304
0.05319240446891148
0.0539556882448765
0.05426252602667817
0.05410546057885547
0.053492773860743116
0.052446474248121454
0.05099956107618257
0.04919302241284166
0.047073210346772046
0.04468993521761837
0.04209506679934321
0.03934144852145502
0.03648186298326401
0.03356766130304371
0.030647176037850218
0.027719426007842284
0.02465484023458707
0.02145233840428898
0.018294883724360347
0.015335341665724632
0.012664124043931285
0.01030660525988803
0.008251274756611242
0.006485207545676274
0.00501078445596823
0.003846352054662826
0.002960706517920435
0.0018415267958840306
0.0024230489121149926
0.003169288379822382
0.004097510442206179
0.005207395200396667
0.006503129239264423
0.007992285550686278
0.009680148058952193
0.011555067271531974
0.013573761631255806
0.01565886654012843
0.017713377583492312
0.019725951759378517
0.02175342042807734
0.023796014168273753
0.025830265919566418
0.027829201220891518
0.029761642321695023
0.03159209688400986
0.03328128596519769
0.0347877620063443
0.03607024683582363
0.03709062260327442
0.03781708039512615
0.03822679178832914
0.03830773609346028
0.038059355722762006
0.03749194120970209
0.03662513193483805
0.03548580423618209
0.034105867881564965
0.03252036393105745
0.03076599788759361
0.028880139838773848
0.026900073888877423
0.024862346725955074
0.022801947101100197
0.020751348967645522
0.018711003496068697
0.016599111342597426
0.014417050071073127
0.012282738967991655
0.010293280767902596
0.008503841609075673
0.0069273076939043035
0.005553367002122345
0.004371622686570058
0.0033814663292828415
0.0025910524913596703
0.001978786265690743
0.001325539801630679
0.001755664738870829
0.00229582243279688
0.0029549816546317275
0.003731848911097963
0.004626353234570095
0.005639578875599293
0.00677097277948866
0.008011092772167725
0.009334608612873609
0.010699502293886661
0.012054064400258276
0.013387522271443984
0.014721721796390424
0.01605070292007193
0.017356988597110778
0.01862151980665696
0.01982341346830505
0.020939918189133534
0.021946768480575078
0.022819005316372105
0.023532392458036917
0.024065113674872515
0.024399694111582347
0.024524670055971805
0.02443572964193103
0.024136207029618387
0.023636612303593513
0.022953623151999142
0.02210846399656944
0.021125261475192746
0.02002940688443506
0.01884632630178645
0.017600626285385376
0.016315535163857118
0.015012648650628653
0.013711702223873894
0.012430351684479155
0.011170616833340093
0.009895928237233113
0.008608266521644052
0.007363181315742817
0.006205920494445487
0.005161710401189656
0.004235712062005633
0.0034222539704063695
0.002715803805936558
0.0021155854783930362
0.0016247263441046525
0.0012324257463129256
0.0009135427889286096
0.0012183773936479635
0.0015899837549167967
0.0020310776202943637
0.002540297925676353
0.0031154201565933236
0.003753473510098753
0.004450075978118297
0.005197530477408838
0.0059831677088313115
0.006789515152555829
0.007596406236538344
0.008393977612970572
0.009180530737610748
0.00994747952637057
0.010683666037396627
0.011377833958218654
0.012018469376952104
0.012593626758275168
0.01309100047655896
0.013498203486632873
0.013803469577452258
0.013996545205755174
0.014069796782809141
0.014019231242184666
0.013845256763004967
0.013552944220497772
0.013151785860295442
0.012654933870121158
0.012078040461323053
0.011437959745012941
0.010751518354370227
0.010034497099101342
0.009300991944318743
0.008563100273087366
0.007830955516273587
0.0071129113567283166
0.006415826362632039
0.0057424062308528345
0.005086405920720608
0.004449633314461087
0.003845228213097113
0.0032837741967155607
0.0027712293256255925
0.0023087969007516956
0.001894970566383544
0.0015281414972113912
0.0012077793367641987
0.0009343090459335958
0.0007048926579057053
)
;

boundaryField
{
    "(inlet|outlet)"
    {
        type            zeroGradient;
    }
        "(front|back)"
        {
            type            empty;
        }
    "(top|hills)"
    {
     	type            zeroGradient;
    }
}

