/*--------------------------------*- C++ -*----------------------------------*\
| =========                 |                                                 |
| \\      /  F ield         | OpenFOAM: The Open Source CFD Toolbox           |
|  \\    /   O peration     | Version:  v2106                                 |
|   \\  /    A nd           | Website:  www.openfoam.com                      |
|    \\/     M anipulation  |                                                 |
\*---------------------------------------------------------------------------*/
FoamFile
{
    version     2.0;
    format      ascii;
    arch        "LSB;label=32;scalar=64";
    class       volScalarField;
    location    "0";
    object      expGpCoeffs48;
}
// * * * * * * * * * * * * * * * * * * * * * * * * * * * * * * * * * * * * * //

dimensions      [0 0 0 0 0 0 0];

internalField   nonuniform List<scalar> 
8000
(
0.00100337
0.000940441
0.000823943
0.000655752
0.000474371
0.000297052
0.000166527
7.72383e-05
2.64887e-05
8.63938e-06
-1.2407e-06
-4.29814e-06
-7.12545e-06
-9.4281e-06
-9.45253e-06
-7.26189e-06
-4.78925e-06
-2.19662e-06
-1.81604e-07
1.31905e-06
4.7977e-06
1.03028e-05
1.97918e-05
3.32852e-05
5.30506e-05
7.96166e-05
0.000117475
0.000167082
0.000234523
0.000320334
0.000431373
0.000568207
0.000737448
0.000939567
0.00117916
0.00145643
0.00177191
0.00212536
0.00251149
0.00292947
0.00336737
0.00382377
0.00428065
0.00473618
0.0051685
0.00557557
0.00593525
0.00624568
0.00648853
0.00666246
0.00675663
0.00677047
0.0067029
0.00655427
0.00633348
0.00604174
0.00569612
0.00529845
0.00487055
0.0044145
0.00395276
0.00348732
0.00303754
0.00260495
0.00220317
0.00183316
0.00150174
0.00120929
0.000956351
0.00074278
0.000564427
0.000420834
0.000305232
0.000217017
0.000148528
9.91272e-05
6.22021e-05
3.68296e-05
1.90716e-05
8.87997e-06
2.48326e-06
-2.07814e-07
-4.05063e-06
-9.17684e-06
-1.50848e-05
-2.15485e-05
-2.36733e-05
-2.1089e-05
-1.58598e-05
-8.62882e-06
-7.36233e-07
8.19384e-06
3.83128e-05
9.44197e-05
0.000187581
0.000324195
0.000470706
0.000612264
0.000711671
0.000766263
0.00100844
0.000945522
0.00082738
0.000659239
0.000471913
0.000294473
0.000162278
7.28072e-05
2.52042e-05
7.30752e-06
-1.10565e-06
-4.16033e-06
-7.31637e-06
-9.62464e-06
-9.6187e-06
-7.43142e-06
-4.6575e-06
-2.06198e-06
-2.28447e-07
1.27158e-06
4.52121e-06
1.00238e-05
1.94244e-05
3.29155e-05
5.23659e-05
7.89284e-05
0.000116305
0.000165907
0.000232781
0.000318581
0.000429013
0.00056583
0.000734563
0.000936655
0.00117602
0.00145325
0.00176895
0.00212236
0.00250929
0.00292722
0.00336653
0.00382287
0.00428163
0.00473709
0.00517149
0.0055785
0.0059401
0.00625049
0.00649473
0.00666863
0.00676337
0.00677721
0.00670926
0.00656065
0.00633863
0.00604693
0.00569947
0.00530185
0.00487186
0.00441586
0.00395215
0.00348677
0.00303544
0.00260291
0.00220017
0.00183021
0.00149844
0.00120603
0.000953255
0.000739711
0.000561855
0.000418281
0.000303321
0.000215118
0.000147299
9.79044e-05
6.14868e-05
3.61183e-05
1.85543e-05
8.36739e-06
2.38905e-06
-3.00777e-07
-3.76153e-06
-8.89388e-06
-1.52703e-05
-2.17313e-05
-2.42269e-05
-2.16278e-05
-1.56801e-05
-8.45166e-06
-1.04453e-06
7.89839e-06
3.48126e-05
9.10573e-05
0.000184637
0.000321372
0.000473378
0.000614897
0.000716079
0.000770659
0.00101391
0.000951009
0.00083109
0.000663004
0.000469259
0.000291688
0.00015769
6.80223e-05
2.38172e-05
5.86932e-06
-9.59819e-07
-4.01151e-06
-7.52254e-06
-9.83687e-06
-9.79814e-06
-7.61449e-06
-4.51523e-06
-1.9166e-06
-2.79031e-07
1.22033e-06
4.22264e-06
9.72246e-06
1.90276e-05
3.25163e-05
5.16265e-05
7.81854e-05
0.000115043
0.000164638
0.000230899
0.000316687
0.000426466
0.000563264
0.000731446
0.000933511
0.00117262
0.00144981
0.00176576
0.00211911
0.00250692
0.00292479
0.00336562
0.00382189
0.00428268
0.00473808
0.00517472
0.00558168
0.00594534
0.00625569
0.00650141
0.00667529
0.00677064
0.00678448
0.00671613
0.00656754
0.0063442
0.00605254
0.00570309
0.00530552
0.00487327
0.00441733
0.00395149
0.00348618
0.00303318
0.0026007
0.00219693
0.00182702
0.00149488
0.00120251
0.000949911
0.000736396
0.000559079
0.000415524
0.000301257
0.000213066
0.000145972
9.6584e-05
6.07142e-05
3.53503e-05
1.79958e-05
7.81388e-06
2.28733e-06
-4.01162e-07
-3.44935e-06
-8.58832e-06
-1.54707e-05
-2.19288e-05
-2.48246e-05
-2.22097e-05
-1.54861e-05
-8.26036e-06
-1.37745e-06
7.57935e-06
3.10331e-05
8.74265e-05
0.000181458
0.000318323
0.000476262
0.000617739
0.000720838
0.000775406
0.00101982
0.000956934
0.000835097
0.000667069
0.000466393
0.000288681
0.000152736
6.28554e-05
2.23195e-05
4.31629e-06
-8.02344e-07
-3.85081e-06
-7.74516e-06
-1.00661e-05
-9.99191e-06
-7.81218e-06
-4.3616e-06
-1.75961e-06
-3.33653e-07
1.16497e-06
3.90023e-06
9.39711e-06
1.85991e-05
3.20852e-05
5.0828e-05
7.73829e-05
0.00011368
0.000163267
0.000228867
0.000314642
0.000423715
0.000560492
0.000728081
0.000930116
0.00116895
0.0014461
0.00176231
0.00211561
0.00250435
0.00292216
0.00336463
0.00382084
0.00428381
0.00473915
0.00517821
0.0055851
0.005951
0.0062613
0.00650863
0.00668249
0.00677849
0.00679233
0.00672355
0.00657498
0.00635021
0.00605859
0.00570699
0.00530948
0.00487479
0.00441892
0.00395078
0.00348554
0.00303073
0.00259832
0.00219343
0.00182357
0.00149103
0.00119871
0.0009463
0.000732817
0.00055608
0.000412547
0.000299029
0.000210851
0.000144539
9.51583e-05
5.988e-05
3.4521e-05
1.73926e-05
7.21618e-06
2.17748e-06
-5.09562e-07
-3.11225e-06
-8.25837e-06
-1.56871e-05
-2.2142e-05
-2.54701e-05
-2.2838e-05
-1.52765e-05
-8.05378e-06
-1.73694e-06
7.23484e-06
2.69517e-05
8.35058e-05
0.000178025
0.000315031
0.000479377
0.000620809
0.000725978
0.000780533
0.0010262
0.000963332
0.000839424
0.000672311
0.000463298
0.000285433
0.000147386
5.72759e-05
2.07022e-05
2.63927e-06
-6.32296e-07
-3.67728e-06
-7.98556e-06
-1.03135e-05
-1.02011e-05
-8.02565e-06
-4.19571e-06
-1.59008e-06
-3.92636e-07
1.1052e-06
3.55209e-06
9.04578e-06
1.81363e-05
3.16198e-05
4.99658e-05
7.65165e-05
0.000112207
0.000161787
0.000226673
0.000312434
0.000420745
0.0005575
0.000724448
0.00092645
0.00116499
0.0014421
0.00175858
0.00211182
0.00250159
0.00291933
0.00336357
0.0038197
0.00428504
0.0047403
0.00518197
0.0055888
0.0059571
0.00626735
0.00651643
0.00669026
0.00678697
0.00680081
0.00673157
0.00658302
0.00635669
0.00606512
0.00571121
0.00531376
0.00487644
0.00442064
0.00395002
0.00348485
0.00302809
0.00259574
0.00218965
0.00181985
0.00148688
0.0011946
0.000942401
0.000728953
0.000552843
0.000409333
0.000296623
0.000208459
0.000142991
9.36186e-05
5.89793e-05
3.36254e-05
1.67413e-05
6.57076e-06
2.05886e-06
-6.26617e-07
-2.74824e-06
-7.90208e-06
-1.59208e-05
-2.23723e-05
-2.61671e-05
-2.35165e-05
-1.50502e-05
-7.83071e-06
-2.12514e-06
6.86283e-06
2.25445e-05
7.92721e-05
0.000174318
0.000311475
0.000483614
0.000624124
0.000731528
0.000786068
0.00103469
0.000971927
0.000850026
0.000683225
0.000465291
0.000289711
0.000143156
5.37326e-05
1.9032e-05
9.61004e-07
-4.38906e-07
-3.49954e-06
-8.22535e-06
-1.05604e-05
-1.04248e-05
-8.26104e-06
-4.01657e-06
-1.40702e-06
-4.56328e-07
1.04066e-06
3.17614e-06
8.6664e-06
1.76367e-05
3.11171e-05
4.90185e-05
7.54243e-05
0.000110529
0.000159858
0.000224052
0.000309418
0.000416989
0.000553172
0.000719497
0.000920733
0.00115898
0.00143514
0.00175189
0.00210402
0.00249475
0.00291129
0.00335724
0.00381214
0.00427976
0.00473389
0.00517809
0.00558394
0.00595457
0.00626412
0.00651485
0.00668833
0.00678573
0.00679951
0.00672984
0.00658163
0.0063538
0.00606292
0.00570676
0.00531026
0.00487038
0.00441574
0.00394273
0.00347878
0.00302014
0.00258904
0.00218178
0.00181314
0.00147975
0.00118846
0.000936462
0.00072381
0.000548309
0.000405389
0.000293464
0.0002057
0.00014105
9.1925e-05
5.80065e-05
3.26583e-05
1.6038e-05
5.8738e-06
1.93077e-06
-7.53017e-07
-2.35516e-06
-7.51734e-06
-1.61854e-05
-2.26213e-05
-2.68593e-05
-2.41936e-05
-1.48084e-05
-7.58964e-06
-2.50511e-06
6.49753e-06
1.96137e-05
7.5942e-05
0.000177454
0.000312803
0.000493582
0.000634097
0.000739344
0.000793796
0.00104725
0.000984615
0.0008628
0.00069501
0.00047729
0.000297711
0.00015133
5.67758e-05
2.21537e-05
1.41842e-06
3.13571e-08
-3.41047e-06
-8.13604e-06
-1.06696e-05
-1.05367e-05
-8.72342e-06
-4.46035e-06
-1.73053e-06
-8.16729e-07
8.87924e-07
2.96849e-06
8.27e-06
1.7224e-05
3.00162e-05
4.78458e-05
7.27972e-05
0.000107895
0.000154718
0.0002189
0.000300317
0.000407868
0.000538356
0.00070465
0.000898294
0.0011365
0.00140324
0.00171993
0.00206117
0.00245183
0.0028566
0.00330246
0.0037455
0.00421304
0.00465614
0.00510025
0.00549681
0.00586737
0.00617014
0.00642083
0.00659065
0.00668803
0.00670159
0.00663193
0.00648698
0.00625919
0.00597477
0.00561869
0.00523131
0.00479152
0.00434791
0.00387498
0.00342305
0.0029645
0.00254545
0.00213827
0.00178087
0.00144755
0.00116602
0.000914068
0.000709286
0.000533818
0.000396762
0.000284858
0.000201092
0.000136453
8.9808e-05
5.60119e-05
3.19047e-05
1.5318e-05
5.56398e-06
1.71728e-06
-1.26581e-06
-2.79597e-06
-8.29007e-06
-1.69944e-05
-2.29141e-05
-2.71467e-05
-2.39578e-05
-1.45747e-05
-7.32436e-06
-2.24484e-06
8.45011e-06
2.15118e-05
8.25711e-05
0.000183933
0.000323765
0.000504346
0.000646298
0.000751464
0.000805875
0.00106081
0.000998316
0.000876595
0.000707737
0.000490246
0.00030635
0.000160156
6.00619e-05
2.55246e-05
1.91236e-06
5.39167e-07
-3.31429e-06
-8.0396e-06
-1.07875e-05
-1.06575e-05
-9.2227e-06
-4.96924e-06
-2.14631e-06
-1.23943e-06
7.03006e-07
2.78142e-06
7.84555e-06
1.6796e-05
2.87535e-05
4.65795e-05
6.99603e-05
0.000105051
0.000149167
0.000213336
0.00029049
0.000398019
0.000522358
0.000688618
0.000874064
0.00111222
0.0013688
0.00168542
0.0020149
0.00240548
0.00279753
0.0032433
0.00367355
0.00414099
0.00457218
0.0050162
0.00540272
0.0057732
0.00606866
0.0063193
0.00648517
0.00658253
0.00659586
0.00652621
0.00638478
0.00615704
0.00587959
0.00552358
0.00514606
0.00470635
0.00427465
0.00380182
0.00336287
0.00290441
0.00249839
0.00209129
0.00174603
0.00141278
0.00114179
0.000889887
0.000693602
0.00051817
0.000387446
0.000275564
0.000196115
0.00013149
8.7522e-05
5.37329e-05
3.11317e-05
1.45513e-05
5.31237e-06
1.46866e-06
-1.8628e-06
-3.3832e-06
-9.18015e-06
-1.78681e-05
-2.32303e-05
-2.7457e-05
-2.37032e-05
-1.43222e-05
-7.0379e-06
-1.96379e-06
1.05586e-05
2.35615e-05
8.97294e-05
0.000190929
0.000335602
0.000515968
0.000659474
0.000764552
0.000818919
0.00107546
0.00101311
0.000891491
0.000721479
0.000504238
0.000315679
0.000169686
6.36104e-05
2.91647e-05
2.44574e-06
1.08752e-06
-3.21043e-06
-7.93546e-06
-1.09149e-05
-1.0788e-05
-9.76185e-06
-5.51876e-06
-2.59528e-06
-1.69588e-06
5.03325e-07
2.57941e-06
7.38721e-06
1.63339e-05
2.739e-05
4.52121e-05
6.68969e-05
0.00010198
0.000143174
0.000207328
0.000279877
0.000387383
0.000505082
0.000671305
0.000847899
0.001086
0.0013316
0.00164816
0.00196493
0.00235543
0.00273375
0.00317943
0.00359584
0.00406318
0.00448151
0.00492544
0.00530112
0.00567152
0.00595909
0.00620967
0.00637127
0.00646861
0.00648168
0.00641205
0.00627441
0.00604672
0.00577682
0.00542088
0.00505401
0.00461439
0.00419555
0.00372282
0.00329788
0.00283952
0.00244756
0.00204055
0.00170841
0.00137523
0.00111562
0.000863774
0.000676666
0.000501273
0.000377387
0.000265529
0.000190741
0.00012613
8.50536e-05
5.12719e-05
3.02969e-05
1.37234e-05
5.04067e-06
1.20018e-06
-2.50744e-06
-4.01732e-06
-1.01413e-05
-1.88115e-05
-2.35718e-05
-2.7792e-05
-2.34283e-05
-1.40496e-05
-6.72857e-06
-1.6603e-06
1.28354e-05
2.57748e-05
9.74593e-05
0.000198483
0.000348384
0.000528519
0.000673701
0.000778685
0.000833004
0.00109128
0.00102909
0.000907577
0.000736319
0.000519346
0.000325752
0.000179978
6.74421e-05
3.30953e-05
3.0217e-06
1.67966e-06
-3.09828e-06
-7.82301e-06
-1.10524e-05
-1.09289e-05
-1.03441e-05
-6.11216e-06
-3.0801e-06
-2.18877e-06
2.87701e-07
2.36128e-06
6.89228e-06
1.58349e-05
2.59177e-05
4.37355e-05
6.35889e-05
9.86639e-05
0.000136701
0.000200841
0.000268418
0.000375898
0.000486426
0.00065261
0.000819645
0.00105769
0.00129144
0.00160792
0.00191098
0.00230138
0.00266488
0.00311045
0.00351194
0.00397917
0.00438361
0.00482743
0.00519141
0.00556172
0.00584076
0.00609128
0.00624827
0.00634559
0.00635839
0.00628878
0.00615523
0.0059276
0.00566583
0.00530998
0.0049546
0.00451509
0.00411013
0.00363752
0.0032277
0.00276945
0.00239268
0.00198577
0.00166779
0.00133468
0.00108736
0.000835577
0.000658379
0.000483027
0.000366524
0.000254693
0.000184938
0.000120342
8.2388e-05
4.86145e-05
2.93954e-05
1.28293e-05
4.74727e-06
9.10268e-07
-3.20356e-06
-4.70207e-06
-1.11792e-05
-1.98302e-05
-2.39405e-05
-2.81539e-05
-2.31314e-05
-1.37553e-05
-6.39454e-06
-1.33258e-06
1.5294e-05
2.81649e-05
0.000105806
0.000206641
0.000362187
0.000542072
0.000689065
0.000793946
0.000848213
0.00110836
0.00104634
0.000924947
0.000752343
0.000535661
0.00033663
0.000191092
7.15799e-05
3.73399e-05
3.64365e-06
2.31907e-06
-2.97718e-06
-7.70158e-06
-1.12009e-05
-1.1081e-05
-1.09727e-05
-6.75294e-06
-3.60363e-06
-2.72102e-06
5.48607e-08
2.12572e-06
6.35783e-06
1.52961e-05
2.43278e-05
4.21409e-05
6.00168e-05
9.50829e-05
0.000129712
0.000193836
0.000256044
0.000363497
0.000466281
0.000632423
0.000789136
0.00102712
0.00124807
0.00156447
0.00185272
0.00224302
0.0025905
0.00303596
0.00342133
0.00388844
0.00427789
0.0047216
0.00507294
0.00544316
0.00571298
0.00596344
0.00611546
0.00621275
0.00622525
0.00615566
0.00602654
0.00579896
0.00554598
0.00519022
0.00484725
0.00440786
0.00401789
0.0035454
0.00315192
0.00269379
0.00233342
0.00192661
0.00162392
0.0012909
0.00105685
0.000805129
0.000638631
0.000463323
0.000354794
0.000242991
0.000178672
0.000114092
7.95096e-05
4.57448e-05
2.8422e-05
1.18639e-05
4.43046e-06
5.9721e-07
-3.95525e-06
-5.44149e-06
-1.22999e-05
-2.09303e-05
-2.43386e-05
-2.85446e-05
-2.28108e-05
-1.34374e-05
-6.03384e-06
-9.78698e-07
1.79489e-05
3.07457e-05
0.00011482
0.000215451
0.000377091
0.000556707
0.000705654
0.000810426
0.000864637
0.0011268
0.00106497
0.000943703
0.000769647
0.000553278
0.000348376
0.000203092
7.6048e-05
4.19233e-05
4.31526e-06
3.00953e-06
-2.8464e-06
-7.57045e-06
-1.13613e-05
-1.12453e-05
-1.16516e-05
-7.44487e-06
-4.16896e-06
-3.29576e-06
-1.96569e-07
1.87136e-06
5.78071e-06
1.47142e-05
2.2611e-05
4.04191e-05
5.61596e-05
9.12159e-05
0.000122165
0.000186271
0.000242681
0.000350105
0.000444528
0.000610624
0.00075619
0.000994111
0.00120124
0.00151755
0.0017898
0.00218
0.00251019
0.00295553
0.00332349
0.00379047
0.00416373
0.00460732
0.004945
0.00531512
0.00557501
0.0058254
0.00597204
0.00606931
0.00608149
0.00601191
0.00588758
0.00566006
0.00541657
0.00506091
0.00473134
0.00429207
0.00391829
0.00344593
0.0030701
0.00261209
0.00226943
0.00186273
0.00157655
0.00124362
0.0010239
0.000772249
0.000617306
0.000442047
0.000342127
0.000230355
0.000171905
0.000107343
7.64014e-05
4.26461e-05
2.73708e-05
1.08214e-05
4.08834e-06
2.59157e-07
-4.76696e-06
-6.23994e-06
-1.35102e-05
-2.21182e-05
-2.47685e-05
-2.89665e-05
-2.24646e-05
-1.30942e-05
-5.64434e-06
-5.9656e-07
2.08158e-05
3.35327e-05
0.000124553
0.000224963
0.000393186
0.00057251
0.000723569
0.000828221
0.000882372
0.00115081
0.00108904
0.000973829
0.000797687
0.000585145
0.000373645
0.000222752
8.93846e-05
4.80764e-05
7.55343e-06
3.68628e-06
-2.56933e-06
-7.32883e-06
-1.1337e-05
-1.15316e-05
-1.23234e-05
-8.40409e-06
-5.07761e-06
-3.94485e-06
-5.92997e-07
1.60059e-06
5.23514e-06
1.3855e-05
2.08092e-05
3.76432e-05
5.19014e-05
8.51052e-05
0.0001135
0.000174405
0.000226789
0.000329228
0.000417844
0.000576797
0.000714619
0.000943047
0.00114057
0.00144512
0.00170625
0.00208285
0.00240102
0.00283169
0.00318757
0.00363991
0.0040019
0.00443215
0.00476035
0.00511969
0.00537265
0.00561594
0.00575881
0.00585339
0.00586538
0.00579783
0.00567682
0.00545589
0.00521899
0.00487378
0.00455354
0.00412753
0.003765
0.00330744
0.0029439
0.00250091
0.00217057
0.00177796
0.00150325
0.00118259
0.000972829
0.000731086
0.00058417
0.000416318
0.000322378
0.000215686
0.000161311
9.98767e-05
7.14621e-05
3.94194e-05
2.5845e-05
9.86906e-06
3.73107e-06
-2.66824e-07
-5.66859e-06
-7.65662e-06
-1.51675e-05
-2.34222e-05
-2.55018e-05
-2.88725e-05
-2.17962e-05
-1.27216e-05
-5.24085e-06
1.00341e-06
2.42506e-05
4.33541e-05
0.000139975
0.000247399
0.000422309
0.000599656
0.000753034
0.000851784
0.000905946
0.00118123
0.00111952
0.00100692
0.000831234
0.000625174
0.000414683
0.000252379
0.000119855
5.73025e-05
1.70256e-05
4.28093e-06
-1.96333e-06
-6.88452e-06
-1.08842e-05
-1.20978e-05
-1.29032e-05
-1.01888e-05
-6.89541e-06
-4.77983e-06
-1.43915e-06
1.32801e-06
4.9597e-06
1.2103e-05
1.90528e-05
3.28695e-05
4.71231e-05
7.47572e-05
0.000103143
0.000154426
0.000206794
0.000294251
0.000382839
0.000520335
0.000658113
0.000858031
0.00105549
0.00132473
0.00158578
0.00192157
0.00223964
0.00262634
0.0029821
0.00339058
0.00375245
0.00414271
0.0044708
0.00479784
0.00505072
0.0052727
0.00541553
0.00550205
0.00551403
0.00545261
0.00533164
0.00513043
0.0048936
0.00457969
0.00425956
0.00387329
0.00351088
0.0030977
0.00273428
0.00233639
0.00200615
0.00165583
0.00138121
0.00109735
0.000887659
0.00067567
0.000528801
0.000383199
0.000289289
0.000197859
0.000143502
9.14669e-05
6.30615e-05
3.63685e-05
2.28024e-05
9.54117e-06
3.40701e-06
-1.37334e-06
-6.7605e-06
-1.07429e-05
-1.81983e-05
-2.48807e-05
-2.69283e-05
-2.75851e-05
-2.05361e-05
-1.23147e-05
-4.83897e-06
5.55424e-06
2.8687e-05
6.68207e-05
0.000162786
0.000284912
0.000458888
0.000632492
0.000785425
0.00088215
0.000936261
0.00121578
0.00115412
0.00105112
0.00087587
0.000667327
0.000457948
0.00028437
0.000152758
6.72654e-05
2.72541e-05
4.92305e-06
-1.30895e-06
-6.40474e-06
-1.03953e-05
-1.27091e-05
-1.35293e-05
-1.21161e-05
-8.85834e-06
-5.68148e-06
-2.35287e-06
1.03367e-06
4.66227e-06
1.02112e-05
1.71562e-05
2.77147e-05
4.19634e-05
6.3583e-05
9.19586e-05
0.000132852
0.000185202
0.000256482
0.000345039
0.000459366
0.000597095
0.000766228
0.000963617
0.00119474
0.0014557
0.00174741
0.00206537
0.00240459
0.00276023
0.00312133
0.00348308
0.00383016
0.00415814
0.0044503
0.00470309
0.00490205
0.00504483
0.00512266
0.00513464
0.00507983
0.0049589
0.00477898
0.00454223
0.00426212
0.0039421
0.00359876
0.00323647
0.00287122
0.00250792
0.00215873
0.0018286
0.00152395
0.00124942
0.00100531
0.000795689
0.00061583
0.000469012
0.000347436
0.000253559
0.000178609
0.000124271
8.23857e-05
5.39902e-05
3.30741e-05
1.95168e-05
9.1871e-06
3.05708e-06
-2.56821e-06
-7.93959e-06
-1.40756e-05
-2.1471e-05
-2.64556e-05
-2.84686e-05
-2.6195e-05
-1.91753e-05
-1.18754e-05
-4.40501e-06
1.04684e-05
3.34775e-05
9.21609e-05
0.000187417
0.000323937
0.000496871
0.000675137
0.000827639
0.000916428
0.000970485
0.00128042
0.00121885
0.00111427
0.000939878
0.000706702
0.000498289
0.000291738
0.000160253
6.47401e-05
2.45855e-05
4.58669e-06
-1.66148e-06
-5.79459e-06
-9.77282e-06
-1.47923e-05
-1.56635e-05
-1.45028e-05
-1.12902e-05
-6.4013e-06
-3.08171e-06
3.40108e-07
3.96209e-06
7.21517e-06
1.41535e-05
1.99144e-05
3.41577e-05
4.73685e-05
7.57334e-05
0.000102868
0.000155198
0.00020601
0.000294533
0.000380957
0.000518634
0.000652624
0.000849939
0.00103995
0.00130081
0.00154774
0.00186558
0.00215934
0.00251484
0.00283311
0.00319472
0.00350472
0.00383258
0.0040961
0.0043488
0.0045295
0.00467223
0.00474339
0.00475536
0.00470592
0.00458503
0.00442221
0.00418556
0.00393324
0.00361334
0.00330666
0.00294451
0.00262221
0.00225905
0.00195594
0.00162594
0.00136709
0.00109267
0.000890879
0.000681336
0.000537795
0.000391032
0.000298281
0.000204439
0.000150486
9.61683e-05
6.81975e-05
3.98126e-05
2.74391e-05
1.38946e-05
7.90091e-06
1.78321e-06
-3.25301e-06
-8.61676e-06
-1.74909e-05
-2.48254e-05
-3.07249e-05
-3.26389e-05
-2.60982e-05
-1.90748e-05
-1.01615e-05
-2.73122e-06
7.79529e-06
3.09211e-05
9.42936e-05
0.000189555
0.000357069
0.00052921
0.000734697
0.000886398
0.000977434
0.0010314
0.00134976
0.00128822
0.0011776
0.00100183
0.000749399
0.00054128
0.000299497
0.00016809
6.07976e-05
2.04702e-05
4.14512e-06
-2.12188e-06
-5.12997e-06
-9.09482e-06
-1.71849e-05
-1.81126e-05
-1.71293e-05
-1.39656e-05
-7.12588e-06
-3.81599e-06
-4.9668e-07
3.11814e-06
3.80169e-06
1.07329e-05
1.13713e-05
2.56088e-05
2.96364e-05
5.79898e-05
7.01308e-05
0.00012244
0.000150987
0.000239475
0.000295611
0.000433233
0.000529172
0.000726407
0.000872038
0.00113279
0.00133151
0.00164922
0.0018942
0.00224956
0.002522
0.00288347
0.00315395
0.00348168
0.00371475
0.00396735
0.0041287
0.00427137
0.00433547
0.00434744
0.00430369
0.00418286
0.00403819
0.00380163
0.00357886
0.00325909
0.00299147
0.00262947
0.00235309
0.00199007
0.00173638
0.00140651
0.00119693
0.000922621
0.000766502
0.000557045
0.000452808
0.000306105
0.000244636
0.000150832
0.000119723
6.54276e-05
5.26409e-05
2.42676e-05
2.09663e-05
7.43543e-06
6.30253e-06
1.98164e-07
-3.86858e-06
-9.22422e-06
-2.11497e-05
-2.84186e-05
-3.55894e-05
-3.73941e-05
-2.60803e-05
-1.9051e-05
-8.21738e-06
-8.32161e-07
4.19098e-06
2.74534e-05
9.6365e-05
0.000191686
0.000392788
0.000564466
0.000792899
0.000946011
0.00104286
0.00109681
0.00139612
0.00133721
0.00122692
0.00105388
0.000802522
0.000584651
0.000341453
0.000190451
8.09335e-05
2.54015e-05
9.49897e-06
-1.39865e-06
-4.29938e-06
-8.90671e-06
-1.73233e-05
-1.99401e-05
-1.90379e-05
-1.71799e-05
-1.00691e-05
-6.49624e-06
-3.25372e-06
6.0598e-07
7.71238e-07
6.74459e-06
6.95515e-06
1.82906e-05
2.16028e-05
4.40313e-05
5.5002e-05
9.65783e-05
0.000123384
0.000194465
0.000248225
0.000360271
0.000453214
0.000616065
0.000758187
0.000976366
0.00117125
0.00144026
0.00168135
0.00198531
0.00225408
0.00256584
0.00283314
0.00311764
0.00334826
0.0035686
0.00372838
0.00385326
0.00391679
0.00392746
0.00388416
0.00377869
0.00363549
0.00342933
0.00320894
0.00293136
0.00266689
0.00235448
0.00208178
0.00177092
0.00152117
0.00124137
0.00103571
0.000805649
0.000653147
0.000479722
0.000378581
0.000258792
0.000199779
0.000124246
9.49256e-05
5.172e-05
4.01184e-05
1.76203e-05
1.49309e-05
3.52094e-06
3.28604e-06
-3.13388e-06
-6.94998e-06
-1.33982e-05
-2.57528e-05
-3.18064e-05
-3.9042e-05
-3.78279e-05
-2.59646e-05
-1.78719e-05
-6.88414e-06
2.57053e-06
7.0012e-06
4.24445e-05
0.000113039
0.00022836
0.000431049
0.000615689
0.000843088
0.000995301
0.00109184
0.00114334
0.00144617
0.00139012
0.00128017
0.00111009
0.000859886
0.000631485
0.000389448
0.00021468
0.000105778
3.16964e-05
1.59574e-05
-5.10058e-07
-3.39041e-06
-8.74384e-06
-1.71648e-05
-2.18147e-05
-2.09519e-05
-2.07142e-05
-1.36603e-05
-9.85218e-06
-6.64594e-06
-2.52035e-06
-2.36797e-06
2.37909e-06
2.58934e-06
1.05484e-05
1.3859e-05
2.93941e-05
4.03596e-05
6.94491e-05
9.6242e-05
0.000147072
0.000200807
0.000283097
0.000375997
0.000498844
0.000640899
0.000809546
0.00100434
0.00121669
0.00145766
0.00170182
0.00197046
0.00222439
0.00249157
0.00272579
0.0029563
0.00313912
0.00329882
0.00340301
0.00346652
0.00347565
0.00343238
0.00334478
0.00320165
0.00303084
0.00281056
0.00258206
0.00231772
0.00206301
0.00179043
0.00154024
0.00129061
0.00106907
0.000863507
0.000684927
0.000532497
0.000400991
0.000299898
0.000211421
0.000152436
9.81611e-05
6.88542e-05
3.85503e-05
2.69542e-05
1.12919e-05
8.60404e-06
-8.44161e-08
-3.04639e-07
-7.0948e-06
-1.08686e-05
-1.85778e-05
-3.08508e-05
-3.53865e-05
-4.25523e-05
-3.77043e-05
-2.58325e-05
-1.64757e-05
-5.51194e-06
6.40189e-06
1.07291e-05
6.10138e-05
0.000131131
0.000270714
0.000472364
0.000671002
0.000897283
0.00104853
0.00114473
0.0011936
0.00150022
0.00144725
0.00133767
0.00117079
0.000921831
0.000682058
0.000441274
0.000240844
0.000132606
3.8494e-05
2.29315e-05
4.49482e-07
-2.40888e-06
-8.56797e-06
-1.69937e-05
-2.3839e-05
-2.30187e-05
-2.45307e-05
-1.75382e-05
-1.34761e-05
-1.0309e-05
-5.89629e-06
-5.75781e-06
-2.33495e-06
-2.12504e-06
2.18805e-06
5.497e-06
1.35882e-05
2.45481e-05
4.01539e-05
6.69332e-05
9.58951e-05
0.000149603
0.000199762
0.000292613
0.000372264
0.000514246
0.000629407
0.000824101
0.000975273
0.00121612
0.0013957
0.0016642
0.00185569
0.00212273
0.00230266
0.00253305
0.00267534
0.00283497
0.00291682
0.00298029
0.00298777
0.00294452
0.00287622
0.00273316
0.00260054
0.00238038
0.00220487
0.00194066
0.00174826
0.00147583
0.00129115
0.00104164
0.000883008
0.000677552
0.000554567
0.000402214
0.000315974
0.000214933
0.000160268
0.000101314
6.99931e-05
4.07012e-05
2.43291e-05
1.2739e-05
4.45824e-06
1.77207e-06
-3.97763e-06
-4.182e-06
-1.1372e-05
-1.51e-05
-2.4171e-05
-3.63559e-05
-3.92525e-05
-4.63428e-05
-3.75708e-05
-2.56899e-05
-1.49681e-05
-4.03019e-06
1.05392e-05
1.47547e-05
8.10657e-05
0.000150667
0.00031645
0.000516977
0.000730731
0.000955806
0.001106
0.00120184
0.00124786
0.00153504
0.00148322
0.0013734
0.00121029
0.000984658
0.000742897
0.000508419
0.000298471
0.000169056
6.71311e-05
3.13709e-05
6.53383e-06
-1.82899e-06
-8.29871e-06
-1.61536e-05
-2.39003e-05
-2.55489e-05
-2.78639e-05
-2.33093e-05
-1.92694e-05
-1.5612e-05
-1.11354e-05
-9.67274e-06
-6.86427e-06
-5.5679e-06
-2.67899e-06
9.51215e-07
6.13499e-06
1.56745e-05
2.60135e-05
4.7734e-05
6.8153e-05
0.000110903
0.000148508
0.000222429
0.000285197
0.000399015
0.000493265
0.000650709
0.000777956
0.000974398
0.00112871
0.00134936
0.00151642
0.00173722
0.0018959
0.00208731
0.00221375
0.00234681
0.00241991
0.00247295
0.00247979
0.00244377
0.00238302
0.00226386
0.00214619
0.00196328
0.00180851
0.00158993
0.00142192
0.00119781
0.00103876
0.000834944
0.000700912
0.000534422
0.000433178
0.000310756
0.000242207
0.000161594
0.000120143
7.31909e-05
5.08382e-05
2.71597e-05
1.62292e-05
6.16047e-06
7.6303e-07
-2.98691e-06
-7.37445e-06
-9.76148e-06
-1.70757e-05
-2.272e-05
-3.22274e-05
-4.1894e-05
-4.39991e-05
-4.63446e-05
-3.59668e-05
-2.4542e-05
-1.32854e-05
-1.29673e-06
1.4298e-05
3.5439e-05
0.000108027
0.000201842
0.000377469
0.000577072
0.000794378
0.000998383
0.00114555
0.00124179
0.00128675
0.00157464
0.00152288
0.00143197
0.00126948
0.00105723
0.000817172
0.000576153
0.00036806
0.00020341
0.000102325
3.74271e-05
1.27138e-05
-1.12917e-06
-7.58957e-06
-1.49025e-05
-2.26292e-05
-2.92524e-05
-3.16438e-05
-3.11535e-05
-2.722e-05
-2.24096e-05
-1.79837e-05
-1.40234e-05
-1.12221e-05
-8.40177e-06
-5.51459e-06
-1.53666e-06
3.64402e-06
1.04299e-05
2.07627e-05
3.33401e-05
5.3747e-05
7.72054e-05
0.000114787
0.000155955
0.000218685
0.000284455
0.000378649
0.000473311
0.000600481
0.000722867
0.000877083
0.00101866
0.00118561
0.0013306
0.00148918
0.00161703
0.00174339
0.00183332
0.00190638
0.00194254
0.00194937
0.00192509
0.00186438
0.00178403
0.00166643
0.00154422
0.00138954
0.00124572
0.0010778
0.000933419
0.000774461
0.000646688
0.000512736
0.000411769
0.000310585
0.000239089
0.000170581
0.000125222
8.37955e-05
5.79386e-05
3.55993e-05
2.20753e-05
1.11512e-05
4.11832e-06
-1.2759e-06
-5.935e-06
-1.03162e-05
-1.66384e-05
-2.39012e-05
-3.33676e-05
-4.2734e-05
-4.8715e-05
-5.06873e-05
-4.44987e-05
-3.4149e-05
-2.18164e-05
-1.06132e-05
8.12404e-07
1.63759e-05
6.02068e-05
0.000132209
0.000264088
0.000438026
0.000651278
0.000866829
0.00106116
0.00120765
0.00128592
0.00133081
0.00164285
0.00159153
0.00150905
0.00134847
0.00114365
0.000904602
0.000621376
0.000414622
0.000206927
0.00010575
3.20342e-05
7.13829e-06
7.67151e-07
-5.65741e-06
-1.38845e-05
-2.15969e-05
-3.62609e-05
-3.87877e-05
-4.0651e-05
-3.68447e-05
-2.90465e-05
-2.46709e-05
-1.83673e-05
-1.55733e-05
-1.18727e-05
-8.99017e-06
-5.24948e-06
-7.34773e-08
2.63899e-06
1.29627e-05
1.38279e-05
3.42128e-05
3.44526e-05
7.19885e-05
7.54553e-05
0.000138104
0.000150636
0.000244705
0.00027216
0.000399164
0.000444722
0.000598746
0.000660561
0.0008273
0.000897633
0.00105602
0.0011225
0.00124871
0.00129759
0.00137054
0.00139079
0.00139763
0.00138449
0.00132385
0.00128047
0.00116301
0.00109929
0.000944811
0.000874287
0.000706575
0.000642185
0.000483441
0.000434047
0.000300271
0.00026895
0.000167895
0.00015241
8.39925e-05
7.89318e-05
3.75576e-05
3.69755e-05
1.4662e-05
1.41726e-05
3.25914e-06
9.50923e-07
-4.43889e-06
-8.76764e-06
-1.31424e-05
-2.25188e-05
-2.97357e-05
-4.50377e-05
-5.425e-05
-6.07044e-05
-6.24536e-05
-4.57083e-05
-3.5319e-05
-1.62087e-05
-5.10793e-06
-2.14346e-06
1.352e-05
5.75432e-05
0.000129763
0.00030068
0.000473369
0.000735751
0.000950406
0.00114356
0.00128821
0.00135594
0.00140038
0.00166376
0.00162099
0.00153873
0.00140222
0.0011985
0.000976691
0.000695185
0.000473358
0.000266056
0.000132445
5.90681e-05
1.30941e-05
6.83276e-06
-3.9986e-06
-1.22074e-05
-2.12656e-05
-3.6196e-05
-4.43762e-05
-4.64377e-05
-4.85137e-05
-4.06571e-05
-3.95104e-05
-3.33125e-05
-3.26674e-05
-2.95985e-05
-2.82387e-05
-2.45006e-05
-2.00142e-05
-1.73037e-05
-8.2871e-06
-7.42252e-06
8.15648e-06
8.39613e-06
3.40571e-05
3.75215e-05
7.7918e-05
9.04405e-05
0.000149946
0.000177382
0.000257887
0.000303413
0.000402146
0.000463918
0.000572254
0.000642538
0.00074675
0.000813184
0.00089704
0.000945887
0.000994689
0.00101492
0.00101957
0.00100645
0.000965971
0.000922618
0.000844573
0.0007809
0.000679148
0.000608673
0.000499489
0.000435144
0.000333173
0.000283813
0.000198934
0.000167635
0.000103934
8.84598e-05
4.49794e-05
3.99223e-05
1.26209e-05
1.20392e-05
-3.99021e-06
-4.47926e-06
-1.34026e-05
-1.57092e-05
-2.06741e-05
-2.4363e-05
-2.87726e-05
-3.8042e-05
-4.42559e-05
-5.97544e-05
-6.33129e-05
-6.96598e-05
-6.29555e-05
-4.58141e-05
-3.2151e-05
-1.30118e-05
-7.43042e-07
2.0996e-06
3.37596e-05
7.74553e-05
0.00018241
0.000353052
0.000547039
0.000807665
0.00101072
0.00120266
0.00132482
0.00139231
0.00142802
0.00168633
0.00165281
0.00156998
0.00146026
0.00125772
0.00105454
0.000774888
0.000536783
0.000331006
0.000161429
8.87391e-05
1.95253e-05
1.34229e-05
-2.20735e-06
-1.03854e-05
-2.09202e-05
-3.58594e-05
-5.03017e-05
-5.246e-05
-6.12098e-05
-5.34887e-05
-5.61558e-05
-5.0031e-05
-5.18053e-05
-4.87396e-05
-4.90239e-05
-4.52887e-05
-4.15471e-05
-3.88385e-05
-3.12335e-05
-3.03695e-05
-1.99801e-05
-1.97407e-05
-6.90271e-06
-3.44098e-06
1.29264e-05
2.54395e-05
4.76208e-05
7.50359e-05
0.000105331
0.000150822
0.000189849
0.000251574
0.000296845
0.000367076
0.000412783
0.000479167
0.000517297
0.000566107
0.000588827
0.000609041
0.000611333
0.000598217
0.000579517
0.000536196
0.000500712
0.000437087
0.000392275
0.000321853
0.000275869
0.000211573
0.000170907
0.000121584
8.95069e-05
5.82313e-05
3.4866e-05
1.94037e-05
2.85162e-06
-2.2017e-06