/*--------------------------------*- C++ -*----------------------------------*\
| =========                 |                                                 |
| \\      /  F ield         | OpenFOAM: The Open Source CFD Toolbox           |
|  \\    /   O peration     | Version:  v2106                                 |
|   \\  /    A nd           | Website:  www.openfoam.com                      |
|    \\/     M anipulation  |                                                 |
\*---------------------------------------------------------------------------*/
FoamFile
{
    version     2.0;
    format      ascii;
    arch        "LSB;label=32;scalar=64";
    class       volScalarField;
    location    "0";
    object      expGpCoeffs7;
}
// * * * * * * * * * * * * * * * * * * * * * * * * * * * * * * * * * * * * * //

dimensions      [0 0 0 0 0 0 0];

internalField   nonuniform List<scalar> 
8000
(
0.00957761
0.00600426
-0.00144523
-0.0131912
-0.0290964
-0.0481598
-0.0683302
-0.0894729
-0.108986
-0.12708
-0.142493
-0.155152
-0.164731
-0.171211
-0.174704
-0.175312
-0.173705
-0.169945
-0.165167
-0.159397
-0.153635
-0.147931
-0.14242
-0.137151
-0.131551
-0.125566
-0.118821
-0.111313
-0.103058
-0.0940673
-0.0844678
-0.0742745
-0.0636517
-0.0526173
-0.0413663
-0.029919
-0.018492
-0.0071073
0.00400841
0.0148328
0.0251418
0.0349138
0.0439401
0.0522022
0.0595199
0.0658772
0.0711338
0.0752783
0.0782182
0.0799471
0.0804261
0.0796539
0.0776474
0.0744107
0.070015
0.0644697
0.057896
0.0503079
0.04187
0.0325994
0.0226941
0.0121748
0.00126154
-0.010024
-0.0214519
-0.0330001
-0.0444426
-0.0557572
-0.0667341
-0.0773536
-0.0874327
-0.0969544
-0.105771
-0.11387
-0.121225
-0.127839
-0.134125
-0.140139
-0.146532
-0.153248
-0.160185
-0.167284
-0.173499
-0.178801
-0.181929
-0.182822
-0.180649
-0.175301
-0.166535
-0.154362
-0.139049
-0.12067
-0.100558
-0.0784887
-0.0573097
-0.0371688
-0.0203485
-0.00793072
-7.54871e-05
0.00367792
0.00986536
0.00629278
-0.00107395
-0.0128146
-0.0288625
-0.0479245
-0.0683583
-0.0895111
-0.109158
-0.127264
-0.142722
-0.155392
-0.164976
-0.171464
-0.174921
-0.175534
-0.173838
-0.17008
-0.165198
-0.159429
-0.153602
-0.147897
-0.142419
-0.137151
-0.131609
-0.125624
-0.118885
-0.111378
-0.103113
-0.0941229
-0.0845091
-0.0743172
-0.0636769
-0.0526439
-0.041373
-0.0299272
-0.0184788
-0.00709555
0.00404183
0.0148649
0.0251946
0.0349653
0.0440103
0.0522713
0.0596043
0.0659609
0.0712285
0.0753725
0.0783187
0.0800474
0.0805274
0.0797553
0.0777446
0.0745083
0.0701035
0.0645589
0.0579715
0.0503844
0.0419291
0.0326598
0.0227344
0.0122165
0.00128164
-0.0100025
-0.0214523
-0.032999
-0.0444625
-0.0557757
-0.0667716
-0.0773898
-0.087485
-0.0970055
-0.105835
-0.113933
-0.121282
-0.127896
-0.134118
-0.14013
-0.146485
-0.1532
-0.160205
-0.167304
-0.17363
-0.178931
-0.182159
-0.183048
-0.180925
-0.175568
-0.166806
-0.154622
-0.139266
-0.120873
-0.100615
-0.0785352
-0.057066
-0.0369265
-0.0199465
-0.00753432
0.000227564
0.00398016
0.0101761
0.00660432
-0.000673023
-0.012408
-0.0286101
-0.0476705
-0.0683886
-0.0895524
-0.109344
-0.127464
-0.14297
-0.155652
-0.16524
-0.171737
-0.175155
-0.175774
-0.173982
-0.170226
-0.165232
-0.159463
-0.153565
-0.147861
-0.142418
-0.137151
-0.131671
-0.125687
-0.118954
-0.111449
-0.103171
-0.0941829
-0.0845537
-0.0743632
-0.0637041
-0.0526726
-0.0413802
-0.029936
-0.0184646
-0.00708287
0.00407792
0.0148995
0.0252516
0.035021
0.0440861
0.052346
0.0596955
0.0660512
0.0713309
0.0754743
0.0784272
0.0801557
0.0806368
0.0798649
0.0778496
0.0746137
0.070199
0.0646551
0.058053
0.050467
0.041993
0.0327249
0.0227779
0.0122615
0.00130335
-0.0099792
-0.0214527
-0.0329978
-0.044484
-0.0557957
-0.0668122
-0.0774289
-0.0875414
-0.0970606
-0.105904
-0.114001
-0.121344
-0.127956
-0.134109
-0.140121
-0.146434
-0.153149
-0.160226
-0.167325
-0.173772
-0.17907
-0.182408
-0.183292
-0.181222
-0.175856
-0.167099
-0.154902
-0.139501
-0.121093
-0.100678
-0.0785854
-0.0568028
-0.0366648
-0.0195123
-0.00710627
0.000554812
0.00430654
0.0105116
0.00694075
-0.00024009
-0.0119689
-0.0283374
-0.0473961
-0.0684213
-0.089597
-0.109544
-0.127679
-0.143237
-0.155932
-0.165526
-0.172032
-0.175407
-0.176032
-0.174138
-0.170384
-0.165268
-0.1595
-0.153526
-0.147822
-0.142418
-0.137151
-0.131739
-0.125756
-0.119029
-0.111524
-0.103235
-0.0942478
-0.0846019
-0.0744129
-0.0637334
-0.0527036
-0.041388
-0.0299455
-0.0184492
-0.00706918
0.00411689
0.0149368
0.0253132
0.0350811
0.0441679
0.0524265
0.0597939
0.0661487
0.0714413
0.0755842
0.0785444
0.0802726
0.080755
0.0799831
0.0779629
0.0747276
0.0703021
0.0647591
0.0581411
0.0505562
0.0420619
0.0327953
0.022825
0.0123101
0.00132679
-0.00995408
-0.0214531
-0.0329965
-0.0445073
-0.0558172
-0.0668559
-0.0774711
-0.0876024
-0.0971202
-0.105978
-0.114073
-0.12141
-0.128022
-0.1341
-0.140111
-0.14638
-0.153094
-0.160249
-0.167348
-0.173924
-0.179221
-0.182678
-0.183555
-0.181543
-0.176168
-0.167415
-0.155205
-0.139753
-0.12133
-0.100745
-0.0786396
-0.0565187
-0.0363823
-0.0190435
-0.00664405
0.000908186
0.00465897
0.0108739
0.00730403
0.000227408
-0.0114319
-0.028043
-0.0470999
-0.0684566
-0.0896451
-0.109761
-0.127912
-0.143526
-0.156234
-0.165834
-0.172351
-0.17568
-0.176311
-0.174306
-0.170555
-0.165307
-0.15954
-0.153483
-0.14778
-0.142417
-0.137151
-0.131811
-0.12583
-0.11911
-0.111606
-0.103303
-0.0943178
-0.0846539
-0.0744666
-0.0637651
-0.0527371
-0.0413964
-0.0299558
-0.0184326
-0.00705439
0.00415898
0.0149772
0.0253796
0.035146
0.0442562
0.0525136
0.0599002
0.0662539
0.0715606
0.0757028
0.0786709
0.0803989
0.0808826
0.0801108
0.0780854
0.0748505
0.0704135
0.0648713
0.0582361
0.0506525
0.0421364
0.0328712
0.0228757
0.0123626
0.00135209
-0.00992696
-0.0214536
-0.0329952
-0.0445324
-0.0558405
-0.0669032
-0.0775166
-0.0876683
-0.0971845
-0.106058
-0.114152
-0.121482
-0.128093
-0.134091
-0.140101
-0.146321
-0.153035
-0.160274
-0.167373
-0.174089
-0.179384
-0.182968
-0.183839
-0.18189
-0.176504
-0.167756
-0.155532
-0.140027
-0.121585
-0.100818
-0.0786981
-0.0562118
-0.0360772
-0.0184703
-0.00614492
0.00128977
0.00503955
0.0114164
0.00786802
0.00105212
-0.0104639
-0.0274785
-0.0462848
-0.0683702
-0.0894112
-0.109975
-0.1281
-0.143794
-0.156478
-0.166114
-0.17262
-0.175963
-0.176606
-0.174487
-0.170739
-0.16535
-0.159583
-0.153437
-0.147734
-0.142416
-0.137151
-0.131931
-0.125942
-0.119229
-0.111717
-0.103401
-0.0944061
-0.084725
-0.0745274
-0.0638049
-0.0527664
-0.0414018
-0.0299507
-0.0184017
-0.00701349
0.00422607
0.0150535
0.025481
0.0352557
0.0443883
0.0526525
0.0600576
0.0664166
0.0717367
0.0758821
0.0788579
0.0805869
0.0810719
0.0802994
0.0782687
0.0750308
0.0705826
0.0650352
0.0583836
0.0507928
0.0422558
0.0329817
0.0229621
0.0124388
0.0014022
-0.00988803
-0.0214411
-0.0329944
-0.044557
-0.055877
-0.0669627
-0.0775876
-0.0877587
-0.0972857
-0.106174
-0.114278
-0.121601
-0.12822
-0.13408
-0.140089
-0.146257
-0.15297
-0.160301
-0.167399
-0.174267
-0.179559
-0.183277
-0.184136
-0.182193
-0.176813
-0.168041
-0.155839
-0.140255
-0.12184
-0.10059
-0.0786266
-0.0553491
-0.035481
-0.0174377
-0.00526387
0.00188781
0.00561454
0.0123245
0.008824
0.00201428
-0.00941857
-0.0264139
-0.0451896
-0.0672524
-0.0883669
-0.108909
-0.127225
-0.142901
-0.155868
-0.165492
-0.172332
-0.175669
-0.176644
-0.174532
-0.171037
-0.165639
-0.159986
-0.153846
-0.148156
-0.142897
-0.137603
-0.13244
-0.126368
-0.119656
-0.112042
-0.103728
-0.0946187
-0.0849395
-0.0746201
-0.0638996
-0.0527351
-0.0413725
-0.0297954
-0.0182486
-0.00673864
0.00449881
0.0154393
0.0258649
0.0357397
0.0448707
0.0532183
0.0606221
0.0670443
0.0723634
0.0765492
0.0795244
0.0812687
0.0817536
0.0809702
0.0789399
0.0756648
0.0712175
0.0656074
0.058957
0.0512803
0.0427449
0.0333648
0.023347
0.0127015
0.00166698
-0.00975683
-0.0213078
-0.0330008
-0.0445612
-0.0560216
-0.0671052
-0.0778659
-0.0880351
-0.0976882
-0.106575
-0.114791
-0.122113
-0.128823
-0.134615
-0.140658
-0.146755
-0.153466
-0.160787
-0.167782
-0.174658
-0.179694
-0.183408
-0.183909
-0.18197
-0.176219
-0.167458
-0.154932
-0.139366
-0.120725
-0.0994977
-0.0774406
-0.0541871
-0.0343453
-0.0163227
-0.00423589
0.00290923
0.00658519
0.0133052
0.00985632
0.00305325
-0.0082898
-0.0252642
-0.0440069
-0.0660453
-0.0872392
-0.107759
-0.12628
-0.141938
-0.155209
-0.16482
-0.172021
-0.175352
-0.176686
-0.174574
-0.171372
-0.165979
-0.160507
-0.154373
-0.148741
-0.143485
-0.138151
-0.132989
-0.126827
-0.120117
-0.112393
-0.10408
-0.0948484
-0.0851711
-0.0747202
-0.0640019
-0.0527012
-0.041341
-0.0296277
-0.0180832
-0.00644184
0.00479333
0.0158559
0.0262794
0.0362624
0.0453915
0.0538293
0.0612316
0.0677222
0.0730402
0.0772695
0.0802442
0.082005
0.0824898
0.0816946
0.0796648
0.0763494
0.0719029
0.0662253
0.0595763
0.0518068
0.0432731
0.0337784
0.0237627
0.0129852
0.00195291
-0.00961517
-0.0211638
-0.0330076
-0.0445657
-0.0561777
-0.0672591
-0.0781663
-0.0883334
-0.0981228
-0.107008
-0.115345
-0.122666
-0.129474
-0.135264
-0.141354
-0.147447
-0.154107
-0.16142
-0.168236
-0.175105
-0.179837
-0.183549
-0.183663
-0.18173
-0.175577
-0.166829
-0.153952
-0.138405
-0.119521
-0.098318
-0.07616
-0.0529324
-0.0331189
-0.0151186
-0.00312582
0.0040122
0.00763333
0.0143641
0.0109711
0.00417517
-0.00707092
-0.0240227
-0.0427297
-0.0647418
-0.0860215
-0.106516
-0.12526
-0.140897
-0.154498
-0.164095
-0.171685
-0.175009
-0.176731
-0.174619
-0.171733
-0.166346
-0.161069
-0.154942
-0.149371
-0.144119
-0.138743
-0.133582
-0.127323
-0.120615
-0.112771
-0.104461
-0.0950964
-0.0854213
-0.0748282
-0.0641123
-0.0526646
-0.0413069
-0.0294466
-0.0179047
-0.00612135
0.00511136
0.0163058
0.0267269
0.0368269
0.045954
0.0544891
0.0618898
0.0684542
0.0737711
0.0780474
0.0810214
0.0828001
0.0832847
0.0824768
0.0804474
0.0770886
0.0726432
0.0668926
0.0602449
0.0523753
0.0438435
0.0342251
0.0242115
0.0132915
0.00226166
-0.00946219
-0.0210083
-0.033015
-0.0445706
-0.0563463
-0.0674252
-0.0784908
-0.0886557
-0.0985922
-0.107475
-0.115944
-0.123263
-0.130176
-0.135966
-0.142106
-0.148194
-0.154799
-0.162105
-0.168726
-0.175588
-0.179991
-0.183701
-0.183398
-0.18147
-0.174883
-0.166149
-0.152894
-0.137368
-0.118221
-0.0970441
-0.0747771
-0.0515776
-0.0317946
-0.0138184
-0.00192713
0.00520322
0.00876516
0.0155076
0.0121748
0.00538668
-0.00575472
-0.0226821
-0.0413506
-0.0633343
-0.0847065
-0.105174
-0.124158
-0.139773
-0.15373
-0.163311
-0.171322
-0.174639
-0.176779
-0.174667
-0.172124
-0.166742
-0.161677
-0.155556
-0.150052
-0.144804
-0.139382
-0.134222
-0.127859
-0.121152
-0.11318
-0.104872
-0.0953642
-0.0856913
-0.0749449
-0.0642315
-0.0526251
-0.0412701
-0.0292511
-0.0177119
-0.00577526
0.00545479
0.0167916
0.0272103
0.0374364
0.0465613
0.0552016
0.0626005
0.0692447
0.0745603
0.0788874
0.0818607
0.0836586
0.0841431
0.0833215
0.0812926
0.0778869
0.0734425
0.067613
0.060967
0.0529892
0.0444594
0.0347074
0.0246962
0.0136223
0.00259506
-0.009297
-0.0208403
-0.033023
-0.0445759
-0.0565283
-0.0676046
-0.0788411
-0.0890036
-0.099099
-0.10798
-0.11659
-0.123907
-0.130935
-0.136724
-0.142918
-0.149001
-0.155547
-0.162844
-0.169255
-0.176109
-0.180158
-0.183865
-0.183111
-0.181189
-0.174134
-0.165415
-0.151751
-0.136249
-0.116817
-0.0956684
-0.0732837
-0.0501145
-0.0303646
-0.0124144
-0.000632741
0.00648935
0.00998736
0.0167424
0.0134746
0.0066949
-0.00433344
-0.0212345
-0.0398614
-0.0618144
-0.0832866
-0.103725
-0.122968
-0.138559
-0.1529
-0.162465
-0.17093
-0.174239
-0.176831
-0.17472
-0.172545
-0.16717
-0.162333
-0.15622
-0.150788
-0.145544
-0.140072
-0.134913
-0.128437
-0.121732
-0.113622
-0.105315
-0.0956534
-0.085983
-0.0750709
-0.0643602
-0.0525825
-0.0412303
-0.0290399
-0.0175037
-0.00540155
0.00582563
0.0173162
0.0277322
0.0380945
0.0472171
0.0559709
0.0633679
0.0700982
0.0754125
0.0797945
0.082767
0.0845857
0.0850701
0.0842336
0.0822052
0.0787489
0.0743056
0.0683911
0.0617467
0.0536521
0.0451245
0.0352282
0.0252196
0.0139795
0.00295509
-0.00911862
-0.020659
-0.0330317
-0.0445815
-0.0567249
-0.0677984
-0.0792194
-0.0893793
-0.0996463
-0.108525
-0.117288
-0.124603
-0.131755
-0.137542
-0.143794
-0.149873
-0.156354
-0.163641
-0.169827
-0.176672
-0.180338
-0.184043
-0.182802
-0.180887
-0.173326
-0.164622
-0.150518
-0.13504
-0.1153
-0.094183
-0.0716712
-0.0485347
-0.0288203
-0.0108983
0.000764997
0.00787815
0.0113071
0.0180758
0.0148783
0.00810758
-0.00279868
-0.0196713
-0.0382533
-0.0601731
-0.0817533
-0.10216
-0.121683
-0.137248
-0.152004
-0.161552
-0.170506
-0.173807
-0.176887
-0.174777
-0.173001
-0.167632
-0.163041
-0.156936
-0.151582
-0.146343
-0.140817
-0.13566
-0.129062
-0.122359
-0.114099
-0.105794
-0.0959656
-0.0862979
-0.075207
-0.0644993
-0.0525365
-0.0411874
-0.0288119
-0.0172788
-0.004998
0.00622609
0.0178826
0.0282958
0.0388052
0.0479253
0.0568017
0.0641967
0.0710199
0.0763327
0.0807739
0.0837456
0.0855868
0.0860711
0.0852186
0.0831907
0.0796797
0.0752377
0.0692312
0.0625887
0.0543679
0.0458427
0.0357906
0.0257848
0.0143652
0.00334386
-0.008926
-0.0204632
-0.033041
-0.0445877
-0.0569371
-0.0680076
-0.0796279
-0.089785
-0.100237
-0.109113
-0.118041
-0.125354
-0.13264
-0.138425
-0.144741
-0.150814
-0.157226
-0.164503
-0.170444
-0.17728
-0.180532
-0.184234
-0.182468
-0.18056
-0.172453
-0.163767
-0.149185
-0.133734
-0.113663
-0.0925789
-0.0699299
-0.0468287
-0.0271528
-0.00926117
0.00227433
0.00937784
0.0127323
0.0199325
0.0167693
0.0103665
-0.000633954
-0.017156
-0.0359283
-0.057615
-0.0794032
-0.0998792
-0.119622
-0.13531
-0.150391
-0.160191
-0.169521
-0.173205
-0.176642
-0.174881
-0.173425
-0.168259
-0.163912
-0.157873
-0.15262
-0.147391
-0.141819
-0.136658
-0.129976
-0.123165
-0.114802
-0.106386
-0.0964424
-0.0866549
-0.0754411
-0.0646094
-0.0525195
-0.0410463
-0.0285438
-0.0168901
-0.0044867
0.00685035
0.0186207
0.0291356
0.0397459
0.048953
0.0579133
0.0653774
0.0722644
0.0776257
0.0821075
0.0851049
0.0869615
0.0874473
0.0865837
0.0845325
0.080984
0.0764938
0.0704243
0.0637101
0.0554027
0.0467847
0.0366258
0.026509
0.0149662
0.00381984
-0.0085847
-0.0202564
-0.0329751
-0.0446609
-0.057152
-0.068361
-0.0801183
-0.0904086
-0.100988
-0.109987
-0.119029
-0.12646
-0.133838
-0.139618
-0.145988
-0.152053
-0.158362
-0.165588
-0.171274
-0.177914
-0.180825
-0.184163
-0.18201
-0.179676
-0.171154
-0.162166
-0.147215
-0.131602
-0.111273
-0.0900959
-0.0672094
-0.0443502
-0.0244649
-0.00695073
0.00468571
0.0114045
0.0147227
0.0223956
0.0192362
0.0128474
0.00188095
-0.014078
-0.0327745
-0.0538679
-0.0755548
-0.0961479
-0.115795
-0.132183
-0.147189
-0.158035
-0.167317
-0.172234
-0.175651
-0.175145
-0.173694
-0.16954
-0.16521
-0.15971
-0.154472
-0.149188
-0.14362
-0.138108
-0.131429
-0.124286
-0.115926
-0.107168
-0.0972276
-0.087073
-0.0758629
-0.0646508
-0.0525649
-0.0407101
-0.0282117
-0.0161877
-0.0037882
0.00789616
0.0196627
0.0304904
0.0410973
0.050572
0.0595295
0.0672063
0.074091
0.0796018
0.0840821
0.087159
0.089015
0.0895057
0.0886423
0.0865193
0.0829719
0.0783339
0.0722663
0.0653323
0.0570276
0.0481246
0.037969
0.0275117
0.0159726
0.00444268
-0.00795786
-0.0200422
-0.0327568
-0.0448691
-0.0573561
-0.0689899
-0.0807434
-0.0914414
-0.102018
-0.111394
-0.120432
-0.128225
-0.1356
-0.141771
-0.148136
-0.154292
-0.160584
-0.167277
-0.17294
-0.178535
-0.181436
-0.183424
-0.181287
-0.177577
-0.169102
-0.158909
-0.144034
-0.127585
-0.107356
-0.085997
-0.0632187
-0.0409789
-0.0211747
-0.00426615
0.00733395
0.0140538
0.017368
0.0251424
0.0219869
0.0162775
0.00534265
-0.0105336
-0.0291529
-0.0498217
-0.0713992
-0.0921187
-0.111662
-0.128806
-0.143732
-0.155707
-0.164936
-0.171185
-0.17458
-0.17543
-0.173984
-0.170922
-0.166611
-0.161694
-0.156472
-0.151128
-0.145565
-0.139674
-0.132997
-0.125498
-0.11714
-0.108012
-0.0980756
-0.0875246
-0.0763183
-0.0646956
-0.0526138
-0.0403472
-0.027853
-0.0154291
-0.00303395
0.00902547
0.020788
0.0319535
0.0425567
0.0523203
0.0612747
0.0691812
0.0760635
0.0817356
0.0862144
0.089377
0.0912324
0.0917283
0.0908653
0.0886646
0.0851185
0.080321
0.0742555
0.0670841
0.0587823
0.0495714
0.0394194
0.0285945
0.0170594
0.00511525
-0.00728098
-0.0198109
-0.0325211
-0.0450939
-0.0575766
-0.0696689
-0.0814183
-0.0925566
-0.103129
-0.112912
-0.121947
-0.130131
-0.137503
-0.144097
-0.150457
-0.15671
-0.162983
-0.1691
-0.174739
-0.179206
-0.182096
-0.182627
-0.180506
-0.17531
-0.166885
-0.155392
-0.140599
-0.123246
-0.103127
-0.0815708
-0.0589095
-0.0371117
-0.0173902
-0.000569334
0.010997
0.0170059
0.0203159
0.029508
0.0263585
0.0213489
0.0104831
-0.00544103
-0.0239285
-0.0454092
-0.0668671
-0.0885184
-0.107974
-0.126282
-0.141153
-0.154484
-0.16369
-0.171253
-0.174654
-0.176559
-0.175135
-0.172761
-0.168475
-0.163864
-0.158658
-0.153342
-0.147784
-0.141737
-0.135063
-0.127192
-0.118838
-0.109251
-0.099318
-0.0882586
-0.0770566
-0.0648923
-0.0528151
-0.0399921
-0.0275027
-0.0145272
-0.00213671
0.0104492
0.0222073
0.033854
0.0444533
0.0546336
0.0635846
0.0718257
0.0787055
0.084615
0.0890921
0.0923835
0.0942382
0.0947465
0.0938838
0.0915766
0.0880317
0.0830107
0.0769475
0.0694431
0.0611444
0.0515033
0.0413551
0.0300199
0.0184891
0.00597514
-0.00641644
-0.0195524
-0.0322577
-0.0454479
-0.0579259
-0.0706221
-0.0823672
-0.0940729
-0.104641
-0.114935
-0.123967
-0.132558
-0.139928
-0.146691
-0.153045
-0.159286
-0.165539
-0.171376
-0.176985
-0.180773
-0.183632
-0.183072
-0.180938
-0.174328
-0.165921
-0.152913
-0.138173
-0.119485
-0.0994551
-0.0768212
-0.0542853
-0.0315579
-0.0119766
0.00492271
0.0164154
0.0216635
0.0249672
0.0342063
0.0310632
0.0265099
0.015656
3.264e-05
-0.0184235
-0.040644
-0.0619727
-0.0846994
-0.104061
-0.123642
-0.138455
-0.153245
-0.162428
-0.171447
-0.174855
-0.177909
-0.176511
-0.174818
-0.170559
-0.166213
-0.161026
-0.155756
-0.150203
-0.143986
-0.137314
-0.129043
-0.120692
-0.110606
-0.100677
-0.0890645
-0.077867
-0.0651128
-0.0530405
-0.0396108
-0.0271264
-0.0135488
-0.00116338
0.0119976
0.0237509
0.0359236
0.0465185
0.0571545
0.0661019
0.0747089
0.0815858
0.0877552
0.0922305
0.0956628
0.0975167
0.0980389
0.0971765
0.094753
0.0912096
0.0859444
0.0798837
0.0720155
0.0637202
0.0536094
0.0434652
0.0315729
0.0200468
0.00691085
-0.00547569
-0.0192727
-0.0319729
-0.0458361
-0.058309
-0.0716633
-0.0834036
-0.095727
-0.106291
-0.11714
-0.126168
-0.135199
-0.142566
-0.149507
-0.155855
-0.16206
-0.168291
-0.173897
-0.179473
-0.182598
-0.185424
-0.183682
-0.181532
-0.173359
-0.164967
-0.150336
-0.135651
-0.115506
-0.0955716
-0.0716928
-0.0492922
-0.025706
-0.00615749
0.0104476
0.0219295
0.0266763
0.0299732
0.0382762
0.0353707
0.0308432
0.0204597
0.00493811
-0.0132084
-0.0353045
-0.0567407
-0.0794619
-0.0993903
-0.119007
-0.134804
-0.149672
-0.160124
-0.169304
-0.17406
-0.177289
-0.177064
-0.175483
-0.172003
-0.167704
-0.162818
-0.15753
-0.151888
-0.145569
-0.138598
-0.1303
-0.121581
-0.11146
-0.101124
-0.0894734
-0.0778436
-0.0650487
-0.0525318
-0.0390604
-0.0261338
-0.012515
0.000295587
0.013496
0.0256424
0.037851
0.0487929
0.05946
0.0686951
0.0773271
0.0844208
0.0906079
0.0952196
0.0986614
0.100565
0.101088
0.100183
0.0977514
0.0940742
0.0887922
0.0825093
0.0746161
0.0660171
0.0558738
0.0453552
0.0334243
0.0214664
0.00828752
-0.00457195
-0.0184147
-0.0316111
-0.045521
-0.0584948
-0.0718949
-0.0841225
-0.0964889
-0.10751
-0.118397
-0.127836
-0.136897
-0.144596
-0.151639
-0.158096
-0.164317
-0.170255
-0.175815
-0.180587
-0.183598
-0.185175
-0.183246
-0.179618
-0.171263
-0.16144
-0.146714
-0.130887
-0.110691
-0.0900733
-0.0661848
-0.0436214
-0.0201622
-0.000922646
0.0155738
0.0265597
0.0312789
0.0343237
0.0426712
0.0400221
0.0355225
0.0256468
0.0102352
-0.00757702
-0.0295232
-0.0510912
-0.0736646
-0.0943005
-0.113795
-0.130796
-0.145574
-0.157567
-0.166692
-0.17308
-0.176289
-0.177479
-0.175904
-0.173365
-0.169081
-0.164556
-0.159277
-0.153524
-0.147207
-0.139889
-0.131594
-0.122447
-0.112331
-0.101522
-0.0898764
-0.077743
-0.0649542
-0.0519195
-0.0384545
-0.0250128
-0.0114004
0.00190522
0.0150993
0.0277037
0.0399065
0.0512526
0.0619146
0.0714849
0.0801127
0.0874591
0.0936432
0.0984139
0.101854
0.103814
0.104337
0.103383
0.100953
0.09712
0.0918406
0.0852989
0.0774093
0.0684567
0.0583183
0.0473634
0.0354382
0.0229775
0.00980478
-0.00360544
-0.0174416
-0.0312159
-0.0451192
-0.0586765
-0.0720702
-0.0848653
-0.0972258
-0.108778
-0.11966
-0.129578
-0.138635
-0.14672
-0.153759
-0.160354
-0.166564
-0.172149
-0.177689
-0.181491
-0.184488
-0.184561
-0.182643
-0.177229
-0.168923
-0.157366
-0.142729
-0.125507
-0.105437
-0.0839701
-0.0602372
-0.0374756
-0.0141757
0.00473016
0.0211092
0.0315596
0.0362491
0.0390215
0.047417
0.0450449
0.0405754
0.0312481
0.0159553
-0.00149599
-0.0232803
-0.0449906
-0.0674045
-0.0888043
-0.108166
-0.126469
-0.14115
-0.154805
-0.163873
-0.172021
-0.17521
-0.177927
-0.176358
-0.174836
-0.170568
-0.166433
-0.161164
-0.15529
-0.148976
-0.141283
-0.132993
-0.123382
-0.113271
-0.101951
-0.0903115
-0.0776344
-0.0648521
-0.0512584
-0.0378003
-0.0238023
-0.0101969
0.00364336
0.0168307
0.0299295
0.0421261
0.0539086
0.0645652
0.0744974
0.0831208
0.0907399
0.0969209
0.101863
0.105302
0.107324
0.107846
0.10684
0.10441
0.100409
0.0951323
0.0883111
0.0804256
0.0710912
0.0609579
0.049532
0.0376129
0.0246091
0.0114432
-0.00256177
-0.0163908
-0.0307892
-0.0446854
-0.0588726
-0.0722594
-0.0856674
-0.0980216
-0.110148
-0.121025
-0.131458
-0.140511
-0.149013
-0.156049
-0.162793
-0.16899
-0.174194
-0.179712
-0.182467
-0.185449
-0.183897
-0.181993
-0.174648
-0.166396
-0.152965
-0.138425
-0.119697
-0.0997636
-0.0773797
-0.0538148
-0.030839
-0.00771134
0.0108343
0.0270865
0.0369587
0.041616
0.0440944
0.0518396
0.0495635
0.0446487
0.0356091
0.0212551
0.00412562
-0.0165926
-0.0382388
-0.0602878
-0.0818965
-0.101491
-0.120238
-0.135605
-0.149873
-0.160001
-0.168827
-0.173279
-0.176604
-0.176181
-0.175079
-0.171531
-0.167561
-0.162411
-0.156485
-0.149896
-0.142058
-0.133539
-0.123751
-0.113404
-0.101888
-0.0900041
-0.0771194
-0.0640913
-0.0502842
-0.0365864
-0.0223763
-0.00854403
0.00549997
0.0188951
0.0321823
0.0445618
0.0565105
0.0673199
0.0773898
0.0861315
0.0938544
0.100115
0.105123
0.108599
0.110644
0.111161
0.110134
0.107654
0.103588
0.0982154
0.0912876
0.0832634
0.0737833
0.0634717
0.051866
0.0397337
0.0265226
0.0131146
-0.00111743
-0.0152103
-0.0298471
-0.0440209
-0.0584489
-0.0721189
-0.0857613
-0.0983953
-0.110742
-0.121886
-0.132518
-0.141831
-0.150492
-0.157842
-0.16465
-0.170743
-0.175782
-0.180539
-0.182854
-0.18459
-0.182385
-0.179062
-0.170968
-0.161488
-0.147359
-0.131997
-0.112743
-0.0924974
-0.0698471
-0.0466415
-0.0237087
-0.00171757
0.0164927
0.0317386
0.041304
0.0464597
0.0488361
0.0568508
0.0545815
0.0505864
0.041614
0.0277883
0.0108125
-0.00917174
-0.030617
-0.0525069
-0.0739164
-0.0942386
-0.112814
-0.12962
-0.143754
-0.155755
-0.164494
-0.170987
-0.174272
-0.175658
-0.174551
-0.172135
-0.168173
-0.163258
-0.157337
-0.150477
-0.142644
-0.133722
-0.12394
-0.113159
-0.101651
-0.0893093
-0.0764322
-0.0629371
-0.0491382
-0.0349773
-0.0207757
-0.00649837
0.00753724
0.0213456
0.0346248
0.0473728
0.0593144
0.0704354
0.0804992
0.0894848
0.0972031
0.103631
0.108635
0.112194
0.114238
0.114749
0.113722
0.111145
0.107081
0.101521
0.0945977
0.0863002
0.0768257
0.0661628
0.0545641
0.042013
0.0288098
0.0149293
0.000705735
-0.0138982
-0.0285262
-0.0432326
-0.057652
-0.0718584
-0.0854926
-0.0986495
-0.110989
-0.122626
-0.133251
-0.143021
-0.151677
-0.159355
-0.166157
-0.172039
-0.177066
-0.180628
-0.182941
-0.182713
-0.180539
-0.174942
-0.166931
-0.155313
-0.141319
-0.124271
-0.105196
-0.084056
-0.0616166
-0.0385228
-0.0158044
0.00541899
0.0234651
0.0381529
0.0476465
0.0518316
0.0542009
0.0634337
0.0611915
0.0583805
0.0495199
0.0365731
0.0197465
-0.000539296
-0.0217651
-0.0445581
-0.0657661
-0.0874725
-0.105892
-0.124611
-0.138629
-0.15289
-0.161573
-0.170146
-0.173417
-0.176271
-0.175172
-0.173494
-0.169543
-0.164761
-0.158846
-0.151708
-0.14388
-0.134482
-0.124705
-0.113365
-0.101863
-0.088907
-0.0760376
-0.0618922
-0.0481016
-0.0332761
-0.0190831
-0.00414962
0.00987753
0.0243098
0.037581
0.050897
0.0628312
0.0744418
0.0844995
0.0938754
0.101589
0.10829
0.113292
0.116994
0.119037
0.119552
0.118527
0.115812
0.111751
0.105915
0.0989954
0.0902912
0.0808223
0.0696365
0.0580447
0.0448742
0.0316789
0.0171061
0.00289099
-0.0124511
-0.0270704
-0.042532
-0.0569429
-0.071893
-0.0855192
-0.0993809
-0.111713
-0.123991
-0.13461
-0.144916
-0.153567
-0.161535
-0.168329
-0.174074
-0.179084
-0.181901
-0.184198
-0.182432
-0.180262
-0.172417
-0.164455
-0.150324
-0.136445
-0.117214
-0.0982981
-0.0755384
-0.0533095
-0.0291435
-0.00665801
0.0149461
0.0328346
0.0466044
0.0559807
0.0588768
0.0612173
0.0691432
0.0673042
0.0645293
0.0566239
0.0438287
0.0280187
0.00795527
-0.0126955
-0.0352619
-0.0566508
-0.0781603
-0.0975479
-0.116107
-0.131778
-0.14596
-0.156693
-0.165273
-0.170567
-0.173444
-0.173877
-0.172217
-0.169018
-0.164199
-0.158349
-0.151109
-0.143032
-0.133641
-0.123548
-0.112216
-0.100379
-0.0874316
-0.0742167
-0.0600812
-0.045945
-0.0311298
-0.0166012
-0.00167821
0.0126643
0.0270865
0.040643
0.0539497
0.0661302
0.0777327
0.0879893
0.0973587
0.105217
0.111913
0.116999
0.120699
0.122762
0.123277
0.122204
0.119492
0.115318
0.109486
0.102389
0.0936906
0.0839843
0.0728063
0.0609232
0.0477619
0.0342296
0.019667
0.00507918
-0.0102522
-0.0252688
-0.0407196
-0.0555403
-0.07048
-0.0845159
-0.0983679
-0.111097
-0.123366
-0.134357
-0.144656
-0.1536
-0.161675
-0.168421
-0.1742
-0.178417
-0.181212
-0.181852
-0.180053
-0.17565
-0.167785
-0.157511
-0.143453
-0.127664
-0.108596
-0.0885168
-0.0659614
-0.0434499
-0.0195217
0.00239733
0.0237644
0.0405878
0.0541956
0.0625623
0.0654198
0.0673336
0.0753085
0.0739049
0.0711322
0.0642951
0.0516635
0.0369514
0.0171281
-0.00290169
-0.0252094
-0.0468056
-0.0680753
-0.088538
-0.106893
-0.124379
-0.138403
-0.151395
-0.159872
-0.167391
-0.170216
-0.172333
-0.170656
-0.168288
-0.16347
-0.157696
-0.150461
-0.142117
-0.132732
-0.122299
-0.110975
-0.0987756
-0.0858385
-0.0722505
-0.0581257
-0.0436162
-0.0288122
-0.0139213
0.000990519
0.0156735
0.0300849
0.0439496
0.0572462
0.0696926
0.0812863
0.0917577
0.10112
0.109134
0.115825
0.121002
0.124699
0.126784
0.127298
0.126176
0.123465
0.119169
0.113341
0.106053
0.0973615
0.0873987
0.0762291
0.0640315
0.0508801
0.036984
0.0224323
0.00744208
-0.00787771
-0.0233234
-0.0387626
-0.0540257
-0.0689542
-0.0834324
-0.097274
-0.110431
-0.122692
-0.134084
-0.144375
-0.153636
-0.161705
-0.168392
-0.174168
-0.177509
-0.180312
-0.179132
-0.177377
-0.170518
-0.162752
-0.149931
-0.136032
-0.118147
-0.0992899
-0.0779205
-0.0556171
-0.0327853
-0.00913171
0.0121757
0.0332868
0.0489599
0.0623929
0.06963
0.0724851
0.0739382
0.0808665
0.0795356
0.0761249
0.0695026
0.0584305
0.0441504
0.0265454
0.00686111
-0.0140732
-0.0354835
-0.056404
-0.0768687
-0.0957373
-0.1134
-0.128674
-0.141969
-0.152269
-0.160131
-0.164901
-0.167304
-0.167079
-0.164864
-0.160656
-0.154903
-0.14767
-0.139281
-0.12985
-0.119359
-0.107992
-0.0957319
-0.0827811
-0.0691307
-0.0550195
-0.0404481
-0.0256822
-0.0107317
0.00412173
0.0188602
0.0331986
0.0471131
0.0603287
0.0728178
0.084329
0.0948346
0.10412
0.112158
0.118784
0.123975
0.127623
0.12971
0.130194
0.129062
0.126341
0.122025
0.116206
0.108886
0.100219
0.0902142
0.0790814
0.0668316
0.053722
0.0397655
0.0252533
0.0101959
-0.00509459
-0.0206122
-0.0360399
-0.0513778
-0.0663186
-0.080872
-0.094754
-0.107985
-0.120315
-0.131777
-0.142148
-0.151464
-0.159583
-0.166252
-0.171399
-0.174573
-0.175774
-0.174273
-0.170322
-0.163071
-0.153194
-0.140015
-0.124621
-0.10651
-0.0869859
-0.0655826
-0.0435856
-0.0209309
0.0012796
0.0222284
0.040975
0.0561898
0.0679643
0.074972
0.078552
0.0799282
0.087999
0.0866772
0.0856027
0.0790643
0.0694514
0.0553535
0.0383666
0.0190098
-0.00177725
-0.0228706
-0.0443882
-0.0645696
-0.0849768
-0.102402
-0.120022
-0.13314
-0.146065
-0.153818
-0.160834
-0.163184
-0.164373
-0.162141
-0.158347
-0.152597
-0.145231
-0.136849
-0.127198
-0.116716
-0.105138
-0.0928881
-0.0797164
-0.066078
-0.0517422
-0.0371837
-0.0221961
-0.00725879
0.00780668
0.0225322
0.037066
0.0509682
0.0643556
0.0768337
0.0884869
0.0989832
0.108375
0.116406
0.123099
0.128285
0.131957
0.134042
0.134505
0.133375
0.130589
0.126276
0.120349
0.113035
0.10422
0.0942233
0.082904
0.0706649
0.0573359
0.0433916
0.0286321
0.0135879
-0.00197171
-0.0174756
-0.0331872
-0.0485116
-0.0637432
-0.0782838
-0.0924552
-0.105674
-0.118284
-0.129736
-0.140384
-0.149692
-0.157964
-0.16463
-0.169334
-0.17252
-0.172199
-0.170743
-0.164332
-0.157183
-0.144382
-0.131379
-0.113316
-0.0954496
-0.0741151
-0.0530082
-0.0302413
-0.00792185
0.0142118
0.0348119
0.0529457
0.0679656
0.0782151
0.0851342
0.0861984
0.0875649
0.0941296
0.0933352
0.0922819
0.0872005
0.0778205
0.065594
0.0490162
0.0312553
0.0108155
-0.00943128
-0.0306918
-0.0509827
-0.0712097
-0.0897078
-0.107268
-0.122234
-0.135204
-0.145132
-0.15222
-0.156472
-0.157713
-0.156638
-0.152804
-0.147485
-0.139999
-0.131781
-0.122126
-0.111813
-0.100232
-0.0881978
-0.0750236
-0.0616391
-0.0473013
-0.0330251
-0.0180359
-0.00339823
0.0116684
0.0260895
0.0406239
0.05423
0.0676177
0.079821
0.0914741
0.10173
0.111121
0.118958
0.12565
0.130698
0.134369
0.136379
0.136841
0.135704
0.132917
0.128666
0.122737
0.115551
0.106733
0.0969228
0.0856009
0.073595
0.060263
0.0465851
0.031822
0.0170613
0.00149756
-0.0137227
-0.0294389
-0.0444957
-0.0597327
-0.0740362
-0.0882134
-0.101237
-0.113853
-0.125159
-0.135815
-0.144979
-0.153379
-0.159597
-0.164339
-0.166266
-0.165882
-0.162317
-0.155815
-0.146212
-0.133342
-0.118207
-0.100186
-0.0810207
-0.0598622
-0.038519
-0.016014
0.00547819
0.0272491
0.0461913
0.0638908
0.0769459
0.0869462
0.0923351
0.0933757
0.094189
0.100249
0.099837
0.0982805
0.0942742
0.0858311
0.0751456
0.0599556
0.0435628
0.0242857
0.00480714
-0.0156792
-0.0359677
-0.0557859
-0.0750542
-0.0925743
-0.108932
-0.122245
-0.133832
-0.141518
-0.147234
-0.149062
-0.1489
-0.145465
-0.140515
-0.133227
-0.12514
-0.115704
-0.105525
-0.0941804
-0.0823172
-0.0694171
-0.0562335
-0.0421986
-0.0281456
-0.0134772
0.000923839
0.0156642
0.0298448
0.0440606
0.0574329
0.0705229
0.0825096
0.0938995
0.103966
0.113141
0.120825
0.127357
0.132296
0.135873
0.137825
0.138263
0.137122
0.134383
0.130183