/*--------------------------------*- C++ -*----------------------------------*\
| =========                 |                                                 |
| \\      /  F ield         | OpenFOAM: The Open Source CFD Toolbox           |
|  \\    /   O peration     | Version:  v2106                                 |
|   \\  /    A nd           | Website:  www.openfoam.com                      |
|    \\/     M anipulation  |                                                 |
\*---------------------------------------------------------------------------*/
FoamFile
{
    version     2.0;
    format      ascii;
    arch        "LSB;label=32;scalar=64";
    class       volScalarField;
    location    "0";
    object      expGpCoeffs45;
}
// * * * * * * * * * * * * * * * * * * * * * * * * * * * * * * * * * * * * * //

dimensions      [0 0 0 0 0 0 0];

internalField   nonuniform List<scalar> 
8000
(
1.22641e-06
8.73468e-07
-3.92239e-06
-1.57637e-05
-7.87729e-05
-0.000203842
-0.000478446
-0.000902834
-0.00149212
-0.00224052
-0.00302844
-0.00384245
-0.00451988
-0.00504827
-0.00533736
-0.00539147
-0.00525184
-0.0049251
-0.00453298
-0.00407867
-0.00365356
-0.00326159
-0.00290911
-0.00259962
-0.00229841
-0.00200423
-0.00170871
-0.00141309
-0.00113385
-0.000872671
-0.000644463
-0.000450195
-0.00029507
-0.000179099
-9.68464e-05
-4.74517e-05
-1.76071e-05
-5.96708e-06
3.07077e-06
1.07743e-05
2.87836e-05
5.77799e-05
0.000101058
0.000158475
0.000224324
0.000297761
0.000367393
0.000432115
0.000480593
0.000512
0.000520599
0.000506237
0.000471543
0.000417116
0.000352689
0.000279324
0.00020914
0.000143149
8.98451e-05
4.96762e-05
2.29419e-05
9.2651e-06
-2.5953e-07
-6.74157e-06
-2.52027e-05
-5.70536e-05
-0.000117494
-0.000207649
-0.000336542
-0.000504518
-0.000710213
-0.000952966
-0.00122053
-0.00151138
-0.00181006
-0.00211535
-0.00243786
-0.00277851
-0.00317955
-0.00363689
-0.0041532
-0.0047238
-0.00525343
-0.00573846
-0.00602798
-0.00611431
-0.00591673
-0.00542797
-0.00472392
-0.00381761
-0.00289906
-0.0019854
-0.00124399
-0.000683305
-0.000310095
-0.000126632
-3.05722e-05
-8.74881e-06
-2.31402e-07
3.42438e-08
1.25483e-06
9.01964e-07
-3.02889e-06
-1.48579e-05
-7.05622e-05
-0.000195427
-0.00046237
-0.000886403
-0.00148133
-0.00222969
-0.00303258
-0.00384698
-0.00453729
-0.00506629
-0.00535721
-0.00541179
-0.00526249
-0.0049359
-0.00453286
-0.00407854
-0.00364888
-0.00325691
-0.00290719
-0.00259774
-0.00229906
-0.00200492
-0.00170814
-0.00141256
-0.00113161
-0.000870462
-0.000641279
-0.000447036
-0.000291918
-0.000175962
-9.46169e-05
-4.52284e-05
-1.67871e-05
-5.14858e-06
2.56957e-06
1.02721e-05
2.75694e-05
5.65621e-05
9.99852e-05
0.000157394
0.000224113
0.000297541
0.000368316
0.000433029
0.000482364
0.000513767
0.000522521
0.000508161
0.000472848
0.000418428
0.000352904
0.000279548
0.000208321
0.000142339
8.85736e-05
4.84099e-05
2.20728e-05
8.39774e-06
2.78945e-08
-6.45332e-06
-2.34461e-05
-5.52929e-05
-0.000114555
-0.000204699
-0.00033322
-0.000501174
-0.000707529
-0.000950251
-0.00121937
-0.00151018
-0.00181009
-0.00211535
-0.00243502
-0.00277563
-0.00317309
-0.00363043
-0.00415078
-0.00472141
-0.00526322
-0.00574812
-0.00605091
-0.00613674
-0.00594044
-0.00545095
-0.00473347
-0.00382661
-0.00288901
-0.00197529
-0.00122422
-0.000663943
-0.00029852
-0.000115334
-2.88405e-05
-7.04062e-06
-2.09954e-07
5.5635e-08
1.28552e-06
9.32736e-07
-2.06405e-06
-1.38798e-05
-6.1696e-05
-0.000186341
-0.000445011
-0.00086866
-0.00146968
-0.002218
-0.00303704
-0.00385186
-0.0045561
-0.00508574
-0.00537864
-0.00543374
-0.00527398
-0.00494757
-0.00453272
-0.0040784
-0.00364383
-0.00325186
-0.00290512
-0.00259571
-0.00229976
-0.00200566
-0.00170753
-0.00141199
-0.00112919
-0.000868076
-0.000637841
-0.000443624
-0.000288515
-0.000172574
-9.22093e-05
-4.28276e-05
-1.59016e-05
-4.26473e-06
2.02835e-06
9.72986e-06
2.62584e-05
5.5247e-05
9.88265e-05
0.000156228
0.000223885
0.000297303
0.000369313
0.000434017
0.000484276
0.000515675
0.000524597
0.000510239
0.000474257
0.000419845
0.000353135
0.00027979
0.000207438
0.000141465
8.72007e-05
4.70425e-05
2.11343e-05
7.46112e-06
3.38267e-07
-6.14205e-06
-2.15492e-05
-5.33916e-05
-0.000111382
-0.000201512
-0.000329632
-0.000497563
-0.000704631
-0.00094732
-0.00121811
-0.00150888
-0.00181013
-0.00211534
-0.00243195
-0.00277251
-0.00316611
-0.00362345
-0.00414818
-0.00471884
-0.00527378
-0.00575856
-0.00607568
-0.00616096
-0.00596606
-0.00547576
-0.00474379
-0.00383633
-0.00287815
-0.00196438
-0.00120288
-0.000643036
-0.000286021
-0.000103133
-2.69706e-05
-5.19604e-06
-1.86793e-07
7.87342e-08
1.31866e-06
9.65964e-07
-1.02218e-06
-1.28236e-05
-5.21219e-05
-0.00017653
-0.000426266
-0.0008495
-0.0014571
-0.00220538
-0.00304186
-0.00385714
-0.0045764
-0.00510676
-0.00540178
-0.00545743
-0.00528639
-0.00496017
-0.00453258
-0.00407826
-0.00363837
-0.00324641
-0.00290288
-0.00259352
-0.00230052
-0.00200647
-0.00170686
-0.00141136
-0.00112657
-0.000865499
-0.000634128
-0.00043994
-0.00028484
-0.000168916
-8.96094e-05
-4.02352e-05
-1.49455e-05
-3.31031e-06
1.44392e-06
9.14428e-06
2.48426e-05
5.38269e-05
9.75754e-05
0.000154968
0.000223639
0.000297046
0.000370389
0.000435083
0.000486341
0.000517735
0.000526839
0.000512483
0.000475779
0.000421375
0.000353386
0.000280051
0.000206483
0.00014052
8.57181e-05
4.5566e-05
2.01209e-05
6.44973e-06
6.7342e-07
-5.80593e-06
-1.95009e-05
-5.13385e-05
-0.000107955
-0.000198072
-0.000325758
-0.000493664
-0.000701502
-0.000944154
-0.00121676
-0.00150749
-0.00181017
-0.00211534
-0.00242863
-0.00276915
-0.00315857
-0.00361592
-0.00414536
-0.00471606
-0.0052852
-0.00576984
-0.00610242
-0.00618711
-0.00599371
-0.00550255
-0.00475493
-0.00384682
-0.00286643
-0.0019526
-0.00117983
-0.000620459
-0.000272523
-8.9959e-05
-2.49513e-05
-3.2042e-06
-1.61783e-07
1.03678e-07
1.35444e-06
1.00185e-06
1.02876e-07
-1.17117e-05
-4.17834e-05
-0.000165935
-0.000406025
-0.000828811
-0.00144352
-0.00219175
-0.00304707
-0.00386283
-0.00459833
-0.00512945
-0.00542676
-0.00548302
-0.0052998
-0.00497377
-0.00453242
-0.00407809
-0.00363248
-0.00324052
-0.00290047
-0.00259115
-0.00230134
-0.00200733
-0.00170614
-0.00141069
-0.00112375
-0.000862717
-0.000630118
-0.000435962
-0.000280871
-0.000164967
-8.68021e-05
-3.74357e-05
-1.3913e-05
-2.27969e-06
8.12833e-07
8.51195e-06
2.33138e-05
5.22935e-05
9.62243e-05
0.000153608
0.000223374
0.000296768
0.000371551
0.000436235
0.00048857
0.000519959
0.00052926
0.000514906
0.000477422
0.000423027
0.000353656
0.000280333
0.000205453
0.0001395
8.41172e-05
4.39715e-05
1.90265e-05
5.35758e-06
1.03533e-06
-5.44297e-06
-1.7289e-05
-4.91216e-05
-0.000104254
-0.000194357
-0.000321575
-0.000489454
-0.000698123
-0.000940736
-0.0012153
-0.00150598
-0.00181021
-0.00211533
-0.00242505
-0.00276552
-0.00315044
-0.00360779
-0.00414232
-0.00471306
-0.00529752
-0.00578201
-0.00613129
-0.00621535
-0.00602358
-0.00553149
-0.00476696
-0.00385815
-0.00285377
-0.00193987
-0.00115493
-0.000596079
-0.000257948
-7.57328e-05
-2.28954e-05
-1.05332e-06
-1.34776e-07
1.30612e-07
2.04087e-06
1.50906e-06
1.46391e-06
-1.06879e-05
-3.43556e-05
-0.000158063
-0.000385946
-0.000806939
-0.00142874
-0.0021758
-0.00305108
-0.00386497
-0.00461843
-0.00514823
-0.00545283
-0.00551006
-0.00531427
-0.00498846
-0.00453225
-0.00407792
-0.00362611
-0.00323417
-0.00289786
-0.00258859
-0.00230518
-0.00201028
-0.00170757
-0.00141129
-0.00112227
-0.000860605
-0.000626823
-0.000432283
-0.000277205
-0.000161147
-8.40887e-05
-3.47101e-05
-1.28964e-05
-1.26847e-06
2.17209e-07
8.00573e-06
2.19401e-05
5.11637e-05
9.52694e-05
0.000153031
0.000223854
0.000297676
0.000373848
0.00043888
0.000492259
0.000523803
0.000533293
0.000518859
0.00048062
0.000425924
0.000355219
0.000281475
0.000205328
0.000138968
8.3025e-05
4.25886e-05
1.81278e-05
4.32842e-06
1.41206e-06
-5.08559e-06
-1.5144e-05
-4.70005e-05
-0.000100698
-0.000190973
-0.000317736
-0.000486046
-0.000695516
-0.000938856
-0.0012153
-0.00150695
-0.00181268
-0.00211885
-0.00242119
-0.0027616
-0.00314165
-0.003599
-0.00413904
-0.00470982
-0.00531083
-0.00579515
-0.006162
-0.00624492
-0.00604946
-0.00555845
-0.00477495
-0.00386822
-0.00283836
-0.0019259
-0.00112796
-0.000571698
-0.000246719
-6.54992e-05
-2.1444e-05
1.99697e-07
2.41571e-07
6.58024e-07
4.1628e-06
3.00347e-06
2.96633e-06
-9.58236e-06
-3.32306e-05
-0.000151113
-0.000378902
-0.000784621
-0.00140608
-0.00213767
-0.00301229
-0.00382457
-0.00457729
-0.00512444
-0.00542856
-0.00551372
-0.00531845
-0.00501477
-0.0045575
-0.0041098
-0.00365874
-0.0032637
-0.00293198
-0.0026163
-0.00233667
-0.00203214
-0.00172948
-0.00142417
-0.0011352
-0.000866567
-0.000632829
-0.000434021
-0.000278972
-0.000161145
-8.41014e-05
-3.45178e-05
-1.27081e-05
-1.1171e-06
3.68301e-07
9.09241e-06
2.30241e-05
5.48028e-05
9.89002e-05
0.000160664
0.000231473
0.000309811
0.000385969
0.000454705
0.000508073
0.00054131
0.000550799
0.000535471
0.000497239
0.000439351
0.000368659
0.00029047
0.000214337
0.000143658
8.7725e-05
4.42351e-05
1.97789e-05
4.6044e-06
1.68858e-06
-5.01924e-06
-1.50757e-05
-4.72386e-05
-0.000100926
-0.000193127
-0.000319866
-0.000492907
-0.000702337
-0.000953579
-0.00122997
-0.00153206
-0.00183774
-0.0021553
-0.00245315
-0.00280186
-0.00317632
-0.00363951
-0.00417815
-0.00474502
-0.00534696
-0.00580842
-0.00617505
-0.00622399
-0.00602896
-0.00551305
-0.00473039
-0.00382099
-0.00279196
-0.00189603
-0.00109855
-0.000561384
-0.000236547
-6.39065e-05
-1.98768e-05
1.31325e-06
1.34919e-06
2.29004e-06
6.45415e-06
4.6172e-06
4.5887e-06
-8.38853e-06
-3.20158e-05
-0.000143607
-0.000371295
-0.00076052
-0.00138161
-0.0020965
-0.00297039
-0.00378094
-0.00453286
-0.00509874
-0.00540236
-0.00551768
-0.00532244
-0.00504452
-0.0045877
-0.00415194
-0.00370137
-0.00330547
-0.00297399
-0.00265026
-0.00237069
-0.00205575
-0.00175315
-0.00143807
-0.00114917
-0.000873005
-0.000639315
-0.000435898
-0.00028088
-0.000161143
-8.41151e-05
-3.43101e-05
-1.25049e-05
-9.53644e-07
5.31456e-07
1.02659e-05
2.41948e-05
5.87325e-05
0.000102821
0.000168906
0.0002397
0.000322916
0.000399058
0.000471792
0.00052515
0.000560215
0.000569702
0.000553409
0.000515185
0.00045385
0.000383173
0.000300183
0.000224066
0.000148722
9.28002e-05
4.60131e-05
2.15618e-05
4.90241e-06
1.98718e-06
-4.94759e-06
-1.5002e-05
-4.74958e-05
-0.000101172
-0.000195453
-0.000322166
-0.000500315
-0.000709702
-0.000969478
-0.00124581
-0.00155917
-0.00186479
-0.00219466
-0.00249244
-0.00285157
-0.00322575
-0.00369262
-0.00423065
-0.00478748
-0.00538877
-0.0058227
-0.00618914
-0.00620138
-0.00600683
-0.00546402
-0.00468228
-0.00376999
-0.00274186
-0.00186378
-0.0010668
-0.000550247
-0.000225563
-6.21866e-05
-1.81845e-05
2.51571e-06
2.54524e-06
4.05236e-06
8.92844e-06
6.35976e-06
6.3406e-06
-7.0994e-06
-3.07041e-05
-0.000135503
-0.000363082
-0.000734496
-0.00135519
-0.00205203
-0.00292516
-0.00373383
-0.00448488
-0.005071
-0.00537406
-0.00552196
-0.00532674
-0.00507663
-0.00462031
-0.00419744
-0.0037474
-0.00335058
-0.00301935
-0.00268693
-0.00240742
-0.00208123
-0.0017787
-0.00145309
-0.00116425
-0.000879958
-0.000646318
-0.000437924
-0.00028294
-0.000161141
-8.41299e-05
-3.40858e-05
-1.22854e-05
-7.77137e-07
7.07638e-07
1.1533e-05
2.54588e-05
6.29759e-05
0.000107055
0.000177805
0.000248585
0.000337067
0.000413193
0.000490244
0.00054359
0.00058063
0.000590114
0.00057278
0.000534564
0.000469506
0.000398844
0.000310671
0.00023457
0.00015419
9.82806e-05
4.7933e-05
2.34871e-05
5.22421e-06
2.30963e-06
-4.87021e-06
-1.49225e-05
-4.77734e-05
-0.000101438
-0.000197964
-0.00032465
-0.000508314
-0.000717656
-0.000986646
-0.00126292
-0.00158846
-0.00189401
-0.00223716
-0.00253488
-0.00290525
-0.00327912
-0.00374997
-0.00428734
-0.00483332
-0.00543392
-0.00583812
-0.00620435
-0.00617697
-0.00598292
-0.00541108
-0.00463032
-0.00371493
-0.00268775
-0.00182895
-0.00103251
-0.000538221
-0.000213701
-6.03294e-05
-1.6357e-05
3.81418e-06
3.83679e-06
5.95538e-06
1.16003e-05
8.24146e-06
8.23238e-06
-5.70733e-06
-2.92876e-05
-0.000126751
-0.000354213
-0.000706394
-0.00132666
-0.00200402
-0.00287631
-0.00368296
-0.00443307
-0.00504104
-0.00534351
-0.00552658
-0.00533139
-0.00511132
-0.00465552
-0.00424657
-0.0037971
-0.00339929
-0.00306834
-0.00272652
-0.00244708
-0.00210876
-0.0018063
-0.0014693
-0.00118053
-0.000887465
-0.000653881
-0.000440112
-0.000285165
-0.000161139
-8.41459e-05
-3.38436e-05
-1.20483e-05
-5.86537e-07
8.97886e-07
1.29013e-05
2.68239e-05
6.75581e-05
0.000111627
0.000187416
0.000258179
0.000352348
0.000428455
0.000510169
0.000563502
0.000602674
0.000612156
0.000593697
0.00055549
0.000486413
0.000415768
0.000321997
0.000245914
0.000160094
0.000104199
5.00062e-05
2.5566e-05
5.57171e-06
2.65781e-06
-4.78666e-06
-1.48365e-05
-4.80733e-05
-0.000101725
-0.000200676
-0.000327332
-0.000516952
-0.000726244
-0.00100518
-0.00128139
-0.00162007
-0.00192555
-0.00228306
-0.0025807
-0.00296321
-0.00333676
-0.0038119
-0.00434856
-0.00488282
-0.00548268
-0.00585478
-0.00622078
-0.00615061
-0.00595711
-0.00535391
-0.00457421
-0.00365546
-0.00262933
-0.00179134
-0.000995481
-0.000525234
-0.000200893
-5.83239e-05
-1.43837e-05
5.21632e-06
5.23145e-06
8.01034e-06
1.44854e-05
1.02734e-05
1.02752e-05
-4.20412e-06
-2.7758e-05
-0.000117301
-0.000344635
-0.000676047
-0.00129585
-0.00195218
-0.00282356
-0.00362803
-0.00437712
-0.00500868
-0.00531051
-0.00553156
-0.00533641
-0.00514877
-0.00469354
-0.00429963
-0.00385078
-0.00345189
-0.00312124
-0.00276927
-0.00248991
-0.00213848
-0.00183609
-0.00148681
-0.00119811
-0.000895572
-0.000662048
-0.000442475
-0.000287567
-0.000161137
-8.41632e-05
-3.35821e-05
-1.17924e-05
-3.8072e-07
1.10332e-06
1.43788e-05
2.82978e-05
7.25062e-05
0.000116563
0.000197794
0.000268538
0.000368848
0.000444936
0.000531685
0.000585005
0.000626478
0.000635958
0.000616284
0.000578086
0.000504669
0.000434042
0.000334226
0.000258163
0.000166471
0.000110589
5.22449e-05
2.7811e-05
5.94695e-06
3.0338e-06
-4.69644e-06
-1.47437e-05
-4.83971e-05
-0.000102035
-0.000203605
-0.000330228
-0.00052628
-0.000735519
-0.0010252
-0.00130134
-0.00165422
-0.00195962
-0.00233261
-0.00263018
-0.00302579
-0.003399
-0.00387877
-0.00441467
-0.00493628
-0.00553533
-0.00587276
-0.00623852
-0.00612215
-0.00592924
-0.00529218
-0.00451362
-0.00359125
-0.00256624
-0.00175073
-0.000955498
-0.000511211
-0.000187062
-5.61583e-05
-1.22527e-05
6.7304e-06
6.73746e-06
1.02294e-05
1.7601e-05
1.24675e-05
1.24811e-05
-2.58089e-06
-2.61063e-05
-0.000107096
-0.000334293
-0.000643278
-0.00126258
-0.00189619
-0.00276659
-0.00356871
-0.00431671
-0.00497375
-0.00527489
-0.00553695
-0.00534183
-0.00518921
-0.0047346
-0.00435693
-0.00390874
-0.00350869
-0.00317836
-0.00281544
-0.00253615
-0.00217057
-0.00186827
-0.00150572
-0.0012171
-0.000904327
-0.000670867
-0.000445026
-0.000290161
-0.000161134
-8.41819e-05
-3.32997e-05
-1.1516e-05
-1.58471e-07
1.32516e-06
1.59744e-05
2.98895e-05
7.78493e-05
0.000121894
0.000209
0.000279725
0.000386666
0.000462734
0.000554919
0.000608224
0.000652183
0.00066166
0.000640674
0.000602487
0.000524383
0.000453776
0.000347433
0.000271391
0.000173356
0.00011749
5.46623e-05
3.02352e-05
6.35215e-06
3.4398e-06
-4.59902e-06
-1.46436e-05
-4.87467e-05
-0.00010237
-0.000206767
-0.000333355
-0.000536353
-0.000745534
-0.00104682
-0.00132288
-0.00169109
-0.0019964
-0.00238613
-0.00268361
-0.00309338
-0.00346621
-0.00395098
-0.00448606
-0.004994
-0.00559218
-0.00589218
-0.00625767
-0.00609142
-0.00589914
-0.00522552
-0.0044482
-0.00352191
-0.00249812
-0.00170687
-0.000912322
-0.000496068
-0.000172127
-5.38198e-05
-9.95168e-06
8.36537e-06
8.36372e-06
1.26256e-05
2.21005e-05
1.64451e-05
1.45185e-05
-6.0555e-07
-3.00686e-05
-0.000104794
-0.000324018
-0.000617403
-0.00121484
-0.00183187
-0.00267927
-0.00348082
-0.00422282
-0.00490002
-0.00522399
-0.00551605
-0.00535215
-0.0052278
-0.00479043
-0.0044299
-0.00398386
-0.0035856
-0.00325259
-0.00288043
-0.00259788
-0.00222252
-0.00191073
-0.00153902
-0.0012428
-0.000922969
-0.000683993
-0.000453831
-0.000295566
-0.000164752
-8.59401e-05
-3.48547e-05
-1.1812e-05
-4.9319e-07
2.59802e-06
1.8198e-05
3.46832e-05
8.52378e-05
0.000132872
0.000224043
0.000298862
0.000410388
0.000490151
0.000586096
0.000641736
0.000687417
0.000697216
0.000675319
0.00063534
0.000553995
0.000479982
0.000369127
0.000288996
0.000186574
0.000126921
6.09932e-05
3.37283e-05
8.44741e-06
3.67602e-06
-4.57589e-06
-1.6133e-05
-5.0545e-05
-0.000106404
-0.00021275
-0.000343398
-0.00055119
-0.000766944
-0.00107624
-0.00136136
-0.00174015
-0.00205677
-0.00245805
-0.00275955
-0.00318122
-0.00355849
-0.00404416
-0.00457999
-0.0050716
-0.00565345
-0.00592224
-0.00625151
-0.00604859
-0.00582397
-0.00512202
-0.00434554
-0.00341495
-0.00241644
-0.00164281
-0.000876033
-0.000478942
-0.000167942
-5.85073e-05
-9.14967e-06
8.69372e-06
1.13572e-05
1.60541e-05
2.82072e-05
2.25604e-05
1.66991e-05
1.60528e-06
-3.68601e-05
-0.000111834
-0.000314043
-0.000607414
-0.00113796
-0.00175321
-0.00253391
-0.00333208
-0.00406889
-0.00474262
-0.00513973
-0.00543
-0.00537907
-0.00525519
-0.00490487
-0.00454588
-0.00412869
-0.00373158
-0.00337748
-0.0030056
-0.00268737
-0.00231213
-0.00197155
-0.00159995
-0.00128064
-0.000960907
-0.000705148
-0.000475061
-0.000306446
-0.000175674
-9.12066e-05
-4.01376e-05
-1.32834e-05
-1.96826e-06
5.97465e-06
2.15697e-05
4.58156e-05
9.63539e-05
0.000154844
0.000245985
0.000333197
0.000444687
0.000535644
0.000631558
0.000694281
0.000739948
0.000750724
0.000728834
0.000683419
0.0006021
0.000517774
0.000406954
0.000314442
0.000212053
0.000140943
7.50361e-05
3.91958e-05
1.39231e-05
3.53931e-06
-4.70994e-06
-2.08381e-05
-5.5239e-05
-0.000117876
-0.000224188
-0.000367159
-0.000574884
-0.000810597
-0.0011198
-0.0014324
-0.00181107
-0.00216195
-0.0025631
-0.00290779
-0.00332914
-0.00373777
-0.00422204
-0.00473777
-0.00522731
-0.00571924
-0.00598689
-0.00618106
-0.00597963
-0.00565077
-0.00495265
-0.00416242
-0.00323604
-0.00230894
-0.00153779
-0.000856354
-0.000459481
-0.000176469
-6.67192e-05
-8.87186e-06
8.96675e-06
1.59902e-05
2.06805e-05
3.4957e-05
2.93192e-05
1.96735e-05
4.60811e-06
-4.02926e-05
-0.000115619
-0.000303271
-0.000596628
-0.00105493
-0.00166828
-0.00237695
-0.00317147
-0.00390266
-0.00457266
-0.00504873
-0.00533707
-0.00540814
-0.00528478
-0.00502845
-0.00467111
-0.00428509
-0.00388921
-0.00351234
-0.00314077
-0.00278401
-0.0024089
-0.00203721
-0.00166575
-0.00132149
-0.00100187
-0.000727993
-0.000497986
-0.000318194
-0.000187468
-9.68935e-05
-4.58423e-05
-1.48723e-05
-3.56109e-06
9.62088e-06
2.52105e-05
5.78368e-05
0.000108358
0.00017857
0.00026968
0.000370274
0.000481725
0.000584769
0.00068065
0.000751022
0.000796673
0.000808504
0.000786621
0.000735336
0.000654045
0.000558582
0.000447801
0.000341919
0.000239566
0.000156084
9.02002e-05
4.50999e-05
1.9836e-05
3.39169e-06
-4.85469e-06
-2.59188e-05
-6.03078e-05
-0.000130264
-0.000236539
-0.000392817
-0.00060047
-0.000857735
-0.00116683
-0.00150912
-0.00188765
-0.00227553
-0.00267654
-0.00306787
-0.00348887
-0.00393137
-0.00441412
-0.00490816
-0.00539544
-0.00579029
-0.0060567
-0.00610499
-0.00590516
-0.00546373
-0.00476977
-0.00396468
-0.00304284
-0.00219285
-0.00142438
-0.000835104
-0.000438465
-0.000180003
-6.97894e-05
-7.20334e-06
1.06395e-05
2.11222e-05
2.58056e-05
4.47479e-05
3.9123e-05
2.40136e-05
9.00765e-06
-2.1638e-05
-9.64878e-05
-0.000215772
-0.000506723
-0.00089511
-0.00150412
-0.00219486
-0.00298507
-0.00378594
-0.00445353
-0.00504965
-0.00533834
-0.00551204
-0.00539078
-0.00518482
-0.00482963
-0.00444751
-0.00405291
-0.00365565
-0.0032844
-0.00289284
-0.00251788
-0.00210217
-0.00173084
-0.00134832
-0.00102882
-0.000729651
-0.00049973
-0.000309207
-0.00017853
-8.88374e-05
-3.78053e-05
-1.28923e-05
-1.58533e-06
7.93753e-06
2.35213e-05
6.0721e-05
0.000111223
0.000196044
0.000287119
0.000409362
0.000520771
0.000645874
0.000741719
0.000826977
0.000872611
0.000886757
0.000864883
0.000802418
0.000721157
0.000605014
0.000494275
0.000365504
0.000263189
0.00016214
9.62812e-05
4.34953e-05
1.82408e-05
3.55318e-06
-4.69011e-06
-1.99558e-05
-5.43319e-05
-0.000122729
-0.000228963
-0.000395811
-0.000603386
-0.000887732
-0.00119671
-0.00158171
-0.0019601
-0.0023985
-0.00279936
-0.00323269
-0.00365333
-0.00412494
-0.0046062
-0.00510772
-0.00559233
-0.00594422
-0.00620766
-0.00614559
-0.00594455
-0.00535539
-0.00466354
-0.00375502
-0.00283799
-0.00198969
-0.00122656
-0.000713919
-0.000320534
-0.000149355
-3.99138e-05
-2.82873e-06
1.49548e-05
2.87447e-05
3.34179e-05
5.55119e-05
4.98915e-05
3.17999e-05
1.59657e-05
-1.72612e-06
-7.61033e-05
-0.000120737
-0.000408923
-0.000716108
-0.00132034
-0.00199727
-0.00278282
-0.00366383
-0.0043289
-0.00506062
-0.00534978
-0.00563591
-0.00551698
-0.00535843
-0.00500557
-0.00462138
-0.00422816
-0.00380997
-0.00343907
-0.00301061
-0.0026358
-0.00217199
-0.00180081
-0.00137636
-0.001057
-0.000730204
-0.000500377
-0.000298338
-0.000167713
-7.93751e-05
-2.83637e-05
-1.05556e-05
7.46802e-07
5.81773e-06
2.13951e-05
6.32929e-05
0.000113774
0.000214474
0.000305512
0.000451519
0.000562883
0.00071229
0.000808096
0.000909786
0.000955401
0.000972111
0.000950245
0.000875448
0.00079422
0.000655281
0.000544586
0.000390644
0.000288371
0.000168127
0.000102294
4.13337e-05
1.60895e-05
3.7448e-06
-4.49513e-06
-1.29015e-05
-4.72636e-05
-0.000113467
-0.000219659
-0.000397716
-0.000605207
-0.000919
-0.00122785
-0.00165954
-0.00203778
-0.0025313
-0.00293201
-0.00340917
-0.00382941
-0.00433039
-0.00481002
-0.0053264
-0.00580813
-0.00612268
-0.00638288
-0.00620159
-0.00599913
-0.00524418
-0.00455448
-0.00352892
-0.00261707
-0.00176331
-0.00100605
-0.000582156
-0.000192494
-0.000117244
-8.2055e-06
4.15411e-06
2.23984e-05
3.71771e-05
4.18427e-05
7.92795e-05
7.03672e-05
5.23937e-05
2.80491e-05
1.06155e-05
-5.55596e-05
-9.3954e-05
-0.000335526
-0.000628502
-0.00116448
-0.00183625
-0.00258263
-0.00346719
-0.0041607
-0.00490601
-0.00528315
-0.00558594
-0.00556571
-0.00541499
-0.00512452
-0.00473975
-0.0043606
-0.00393694
-0.00354724
-0.00311025
-0.00270367
-0.00223631
-0.00183648
-0.00140894
-0.00106934
-0.000740538
-0.000500282
-0.00029743
-0.000164415
-7.62182e-05
-2.65438e-05
-9.29512e-06
2.29359e-06
7.01644e-06
2.89422e-05
7.11877e-05
0.000135892
0.000237784
0.000349278
0.000497072
0.000630472
0.000781707
0.000895061
0.000997987
0.0010514
0.0010683
0.00104201
0.000966287
0.000869726
0.000729072
0.000596776
0.00044094
0.000317029
0.000195343
0.000113265
5.16931e-05
1.81402e-05
5.98241e-06
-3.95469e-06
-1.18249e-05
-4.59228e-05
-0.000111929
-0.000222061
-0.000400917
-0.000621843
-0.000937798
-0.00127197
-0.00170712
-0.00212111
-0.00261872
-0.00305956
-0.00354534
-0.00399233
-0.00449987
-0.00497171
-0.00549066
-0.00590854
-0.00621641
-0.00636177
-0.00616184
-0.00584385
-0.00507116
-0.0043292
-0.00329707
-0.00241811
-0.00156836
-0.000890139
-0.000483
-0.000154756
-8.7828e-05
4.27825e-06
1.63722e-05
4.13812e-05
5.60521e-05
6.39579e-05
0.000104945
9.24777e-05
7.46316e-05
4.10973e-05
2.39424e-05
-3.33756e-05
-7.1105e-05
-0.00025646
-0.000547335
-0.00100057
-0.00166846
-0.00236807
-0.00324794
-0.00397659
-0.00471811
-0.00520165
-0.00550287
-0.00560126
-0.00545105
-0.00523558
-0.00485202
-0.00448893
-0.00406598
-0.00365232
-0.00321554
-0.00277198
-0.00230484
-0.00187165
-0.00144431
-0.00108116
-0.000752513
-0.000500113
-0.000297357
-0.000161556
-7.34008e-05
-2.52803e-05
-8.03981e-06
3.88247e-06
8.60309e-06
3.79165e-05
8.0142e-05
0.000161397
0.000263241
0.000398541
0.000546264
0.00070531
0.000856473
0.000990251
0.00109313
0.00115561
0.00117251
0.00114107
0.00106538
0.000950976
0.000810389
0.000652953
0.000497191
0.000348097
0.000226469
0.000125486
6.39439e-05
2.07209e-05
8.5688e-06
-3.34346e-06
-1.12099e-05
-4.50025e-05
-0.000110978
-0.000225697
-0.000404468
-0.000641037
-0.000956842
-0.0013205
-0.00175543
-0.00221105
-0.00270842
-0.00319598
-0.00368153
-0.00416273
-0.00466936
-0.00513322
-0.00565044
-0.00599163
-0.00629828
-0.00630563
-0.00610678
-0.0056492
-0.00488044
-0.00407448
-0.0030478
-0.00220786
-0.00136297
-0.000780503
-0.000376185
-0.000122055
-5.60631e-05
1.77587e-05
2.95658e-05
6.18797e-05
7.64341e-05
8.78386e-05
0.000132659
0.000116353
9.86451e-05
5.51873e-05
3.83334e-05
-9.42049e-06
-4.64317e-05
-0.000171081
-0.000459688
-0.000823574
-0.00148728
-0.00213638
-0.00301117
-0.00377777
-0.0045152
-0.00511363
-0.00541317
-0.00563966
-0.00548998
-0.00535552
-0.00497325
-0.00462751
-0.00420532
-0.00376578
-0.00332923
-0.00284574
-0.00237884
-0.00190962
-0.00148251
-0.00109392
-0.000765443
-0.000499931
-0.000297279
-0.000158469
-7.03586e-05
-2.3916e-05
-6.68429e-06
5.59821e-06
1.03164e-05
4.76073e-05
8.98112e-05
0.000188938
0.00029073
0.000451736
0.000599385
0.000786122
0.000937208
0.00109304
0.00119586
0.00126815
0.00128504
0.00124804
0.00117239
0.00103871
0.000898198
0.000713615
0.000557933
0.000381646
0.00026008
0.000138684
7.71727e-05
2.35075e-05
1.13617e-05
-2.68343e-06
-1.05459e-05
-4.40088e-05
-0.00010995
-0.000229624
-0.000408304
-0.000661763
-0.000977407
-0.00137289
-0.00180761
-0.00230816
-0.00280528
-0.0033433
-0.00382859
-0.00434673
-0.00485238
-0.00530763
-0.00582297
-0.00608135
-0.00638669
-0.00624501
-0.00604733
-0.00543901
-0.0046745
-0.00379942
-0.00277863
-0.00198083
-0.00114118
-0.000662114
-0.000260842
-8.67429e-05
-2.1762e-05
3.23155e-05
4.38127e-05
8.40148e-05
9.84435e-05
0.000113626
0.000170621
0.00015309
0.000132519
8.69024e-05
5.23593e-05
8.07126e-06
-4.57697e-05
-0.000145267
-0.00039917
-0.000724798
-0.00130615
-0.00193177
-0.0027277
-0.00350636
-0.00423112
-0.00487328
-0.00524432
-0.00552133
-0.00547314
-0.00537181
-0.00505639
-0.00471751
-0.00430552
-0.00385438
-0.00340056
-0.00290166
-0.00242423
-0.00194112
-0.0015081
-0.00110973
-0.000778702
-0.000508166
-0.000304432
-0.000164497
-7.4313e-05
-2.85416e-05
-6.0595e-06
6.35922e-06
2.06834e-05
6.10738e-05
0.00011701
0.000223074
0.000341106
0.000512086
0.000675896
0.000873372
0.00103763
0.00120202
0.00131252
0.00138861
0.00140619
0.00136704
0.00128498
0.00114383
0.000991129
0.000796021
0.000624751
0.000437916
0.000300213
0.000170896
9.52219e-05
3.75003e-05
1.46595e-05
-2.12895e-07
-1.5265e-05
-4.85882e-05
-0.000119605
-0.00024117
-0.000425147
-0.000685108
-0.00100873
-0.0014165
-0.00186354
-0.00238145
-0.0028964
-0.00345391
-0.00396411
-0.00449892
-0.00499977
-0.00545187
-0.0058946
-0.00611865
-0.00629928
-0.00609822
-0.00579615
-0.00512967
-0.00435804
-0.00345876
-0.00252239
-0.00174536
-0.00100848
-0.000573968
-0.000224295
-8.34331e-05
-4.6991e-06
4.2222e-05
7.40325e-05
0.000116089
0.000133952
0.000150347
0.000219382
0.000201914
0.000173416
0.000128323
6.41369e-05
2.01646e-05
-4.33663e-05
-0.000143035
-0.000327269
-0.000651202
-0.0010932
-0.00171386
-0.00240204
-0.00317343
-0.00390587
-0.00454129
-0.00503796
-0.00531139
-0.00542603
-0.00532422
-0.00511341
-0.00477514
-0.00437893
-0.00392815
-0.0034483
-0.0029497
-0.00244695
-0.00196413
-0.00151503
-0.00111689
-0.000779094
-0.00050872
-0.000304914
-0.000165063
-7.65355e-05
-3.07915e-05
-5.94575e-06
6.46555e-06
3.17466e-05
7.21128e-05
0.000149319
0.00025532
0.000402975
0.000573854
0.000770337
0.000967695
0.00116049
0.00132477
0.00145275
0.00152879
0.0015483
0.00150917
0.00141297
0.0012719
0.00109257
0.000897583
0.000693858
0.000507134
0.000338641
0.000209401
0.000110491
5.28035e-05
1.66645e-05
1.80102e-06
-1.84019e-05
-5.17051e-05
-0.000124896
-0.000246387
-0.000436155
-0.000695961
-0.00103459
-0.00144212
-0.001916
-0.00243361
-0.00298664
-0.00354382
-0.00409508
-0.0046294
-0.00512526
-0.00557622
-0.00590652
-0.00613027
-0.00611244
-0.00591453
-0.00543481
-0.00477569
-0.00395933
-0.00306879
-0.00224001
-0.00146946
-0.000901288
-0.000469303
-0.000216855
-7.58846e-05
3.8707e-06
5.06009e-05
0.00011303
0.000154591
0.000181532
0.000197866
0.000282532
0.000265042
0.000226498
0.000178954
7.4418e-05
3.02963e-05
-1.73877e-06
-0.000100364
-0.000152304
-0.000471509
-0.000776522
-0.00138951
-0.00204049
-0.00280404
-0.00364256
-0.00427264
-0.00495061
-0.00522256
-0.00548018
-0.00537908
-0.0052258
-0.00488852
-0.00448215
-0.00403179
-0.00350641
-0.00300812
-0.00245521
-0.0019727
-0.00148776
-0.00108989
-0.000737443
-0.000467267
-0.000269069
-0.000129332
-5.87616e-05
-1.30602e-05
-5.96887e-06
6.44115e-06
2.70626e-05
6.74345e-05
0.000161446
0.000267434
0.000453629
0.000624464
0.000872642
0.00106994
0.00131279
0.00147702
0.00163766
0.00171368
0.00173761
0.00169849
0.00157675
0.00143573
0.00120914
0.00101421
0.000756696
0.000570024
0.000357574
0.000228358
0.000106692
4.90067e-05
1.34593e-05
-1.40636e-06
-5.33368e-06
-3.86071e-05
-9.41145e-05
-0.000215512
-0.000401469
-0.000661094
-0.00102033
-0.00142759
-0.00194861
-0.0024659
-0.00308414
-0.00364099
-0.00425134
-0.00478512
-0.0053021
-0.00575157
-0.00602982
-0.00625194
-0.00607508
-0.00587774
-0.00517113
-0.0045172
-0.00354095
-0.00265935
-0.00184164
-0.00108049
-0.000662399
-0.000236696
-0.000150277
-1.0736e-05
1.42753e-05
6.09782e-05
0.000161174
0.000205352
0.000242897
0.000259272
0.000365523
0.000345538
0.000307461
0.000238626
0.000135331
5.85036e-05
2.72966e-05
-5.79647e-05
-0.000106028
-0.000333201
-0.000632504
-0.0011155
-0.00175931
-0.0024403
-0.00327268
-0.00392762
-0.00460618
-0.00499056
-0.00525131
-0.00527103
-0.00511891
-0.00484792
-0.00443747
-0.00399934
-0.00346701
-0.00296391
-0.00241139
-0.00192891
-0.0014443
-0.00105419
-0.000701981
-0.000444629
-0.000246569
-0.000119838
-4.93173e-05
-1.08779e-05
-3.79146e-06
1.22868e-05
3.28939e-05
9.04973e-05
0.000184443
0.000320083
0.000506148
0.000713987
0.000961991
0.00119576
0.00143844
0.00163
0.00179053
0.00187793
0.00190184
0.0018552
0.00173354
0.00156795
0.00134153
0.00111113
0.000853798
0.000629351
0.000417049
0.00025615
0.000134569
5.70462e-05
2.15236e-05
2.30196e-07
-3.69438e-06
-3.27463e-05
-8.8215e-05
-0.000200575
-0.000386403
-0.00063894
-0.000997927
-0.00140549
-0.00192614
-0.00245359
-0.0030714
-0.00364409
-0.00426203
-0.00479056
-0.00531235
-0.00568995
-0.00596715
-0.00604199
-0.00586108
-0.0055089
-0.00480014
-0.0040855
-0.00311551
-0.00230871
-0.0014995
-0.000888586
-0.000477618
-0.000171814
-9.05516e-05
1.94908e-05
4.36217e-05
0.000121324
0.000220292
0.000287806