/*--------------------------------*- C++ -*----------------------------------*\
| =========                 |                                                 |
| \\      /  F ield         | OpenFOAM: The Open Source CFD Toolbox           |
|  \\    /   O peration     | Version:  v2106                                 |
|   \\  /    A nd           | Website:  www.openfoam.com                      |
|    \\/     M anipulation  |                                                 |
\*---------------------------------------------------------------------------*/
FoamFile
{
    version     2.0;
    format      ascii;
    arch        "LSB;label=32;scalar=64";
    class       volScalarField;
    location    "0";
    object      expGpCoeffs6;
}
// * * * * * * * * * * * * * * * * * * * * * * * * * * * * * * * * * * * * * //

dimensions      [0 0 0 0 0 0 0];

internalField   nonuniform List<scalar> 
8000
(
0.0433418
0.0448921
0.0472127
0.0499111
0.0515002
0.0518318
0.0498314
0.0456603
0.0391779
0.0304536
0.0201066
0.00820533
-0.00441108
-0.0176522
-0.030547
-0.0431151
-0.0545419
-0.0649002
-0.0740352
-0.0819552
-0.0891462
-0.0955662
-0.101801
-0.107796
-0.113808
-0.119839
-0.125894
-0.131967
-0.138024
-0.14406
-0.150036
-0.155946
-0.161743
-0.167422
-0.172932
-0.178267
-0.183376
-0.188251
-0.192841
-0.197141
-0.201102
-0.20472
-0.207952
-0.210795
-0.213215
-0.215209
-0.216755
-0.21785
-0.218485
-0.218657
-0.218369
-0.217622
-0.216428
-0.21479
-0.212733
-0.210259
-0.207403
-0.204169
-0.200599
-0.196698
-0.192514
-0.188051
-0.18336
-0.178446
-0.173359
-0.168105
-0.162731
-0.157243
-0.151685
-0.146061
-0.14041
-0.134735
-0.129069
-0.123415
-0.117808
-0.112252
-0.106797
-0.101444
-0.0960694
-0.0907183
-0.0849396
-0.0787641
-0.0717556
-0.0639058
-0.0553072
-0.0459061
-0.0363725
-0.0267005
-0.017719
-0.00950375
-0.0027761
0.00240987
0.00559817
0.00670112
0.0061153
0.00373381
0.000802985
-0.00234909
-0.00465186
-0.00597434
0.043217
0.044767
0.047244
0.0499427
0.0516554
0.0519916
0.050037
0.045871
0.0393461
0.0306235
0.0202097
0.00830728
-0.00438632
-0.0176307
-0.0306053
-0.0431779
-0.0546448
-0.0650065
-0.0741187
-0.0820399
-0.0891794
-0.095599
-0.101801
-0.107795
-0.113805
-0.119836
-0.125894
-0.131966
-0.138027
-0.144063
-0.150044
-0.155952
-0.161755
-0.167433
-0.172948
-0.178283
-0.183397
-0.188271
-0.192867
-0.197166
-0.201132
-0.204749
-0.207985
-0.210827
-0.21325
-0.215244
-0.216792
-0.217887
-0.218522
-0.218695
-0.218406
-0.217659
-0.216463
-0.214825
-0.212765
-0.210291
-0.207432
-0.204198
-0.200624
-0.196724
-0.192534
-0.188072
-0.183375
-0.178462
-0.17337
-0.168117
-0.162738
-0.157251
-0.151688
-0.146065
-0.14041
-0.134736
-0.129066
-0.123413
-0.117802
-0.112246
-0.106786
-0.101434
-0.0960786
-0.090728
-0.0849938
-0.0788176
-0.0718319
-0.0639796
-0.0553491
-0.0459448
-0.0363427
-0.0266687
-0.0176199
-0.00940471
-0.00261972
0.00256353
0.00577963
0.00687713
0.00621774
0.00383271
0.000760806
-0.00239064
-0.00475863
-0.00608084
0.0430822
0.0446318
0.0472777
0.0499768
0.051823
0.0521643
0.050259
0.0460985
0.0395277
0.0308071
0.0203209
0.00841736
-0.00435958
-0.0176075
-0.0306683
-0.0432457
-0.0547559
-0.0651212
-0.0742089
-0.0821313
-0.0892152
-0.0956344
-0.101802
-0.107795
-0.113802
-0.119832
-0.125894
-0.131965
-0.138031
-0.144066
-0.150052
-0.15596
-0.161767
-0.167445
-0.172966
-0.1783
-0.18342
-0.188294
-0.192895
-0.197193
-0.201164
-0.204781
-0.208021
-0.210863
-0.213289
-0.215282
-0.216832
-0.217927
-0.218562
-0.218735
-0.218446
-0.217698
-0.216501
-0.214863
-0.2128
-0.210326
-0.207463
-0.204229
-0.20065
-0.196751
-0.192556
-0.188094
-0.183392
-0.178479
-0.173382
-0.168129
-0.162746
-0.157259
-0.151692
-0.14607
-0.14041
-0.134737
-0.129063
-0.123411
-0.117795
-0.112241
-0.106774
-0.101422
-0.0960886
-0.0907385
-0.0850524
-0.0788754
-0.0719142
-0.0640593
-0.0553943
-0.0459865
-0.0363105
-0.0266343
-0.0175129
-0.00929776
-0.00245085
0.00272945
0.00597558
0.0070672
0.00632836
0.0039395
0.000715259
-0.0024355
-0.00487394
-0.00619584
0.0429366
0.0444858
0.0473142
0.0500137
0.0520041
0.0523507
0.0504988
0.0463442
0.0397239
0.0310053
0.0204411
0.00853623
-0.0043307
-0.0175824
-0.0307364
-0.0433189
-0.0548759
-0.0652452
-0.0743063
-0.08223
-0.0892539
-0.0956727
-0.101802
-0.107794
-0.113799
-0.119828
-0.125894
-0.131965
-0.138035
-0.144069
-0.15006
-0.155967
-0.161781
-0.167458
-0.172985
-0.178319
-0.183445
-0.188318
-0.192925
-0.197223
-0.201199
-0.204815
-0.20806
-0.210901
-0.21333
-0.215324
-0.216875
-0.21797
-0.218606
-0.218779
-0.218489
-0.217741
-0.216542
-0.214904
-0.212837
-0.210364
-0.207496
-0.204263
-0.200679
-0.19678
-0.192579
-0.188118
-0.18341
-0.178498
-0.173395
-0.168143
-0.162754
-0.157268
-0.151696
-0.146074
-0.14041
-0.134738
-0.12906
-0.123409
-0.117788
-0.112234
-0.106761
-0.10141
-0.0960994
-0.0907498
-0.0851156
-0.0789378
-0.0720032
-0.0641454
-0.0554431
-0.0460316
-0.0362757
-0.0265972
-0.0173974
-0.00918227
-0.00226851
0.00290863
0.00618717
0.00727244
0.00644781
0.00405482
0.000666076
-0.00248394
-0.00499845
-0.00632001
0.0427794
0.0443282
0.0473535
0.0500385
0.0521996
0.0525519
0.0507577
0.0466095
0.0399357
0.0312193
0.0205708
0.0086646
-0.00429952
-0.0175554
-0.0308099
-0.043398
-0.0550054
-0.065379
-0.0744115
-0.0823366
-0.0892956
-0.095714
-0.101803
-0.107794
-0.113796
-0.119824
-0.125895
-0.131964
-0.13804
-0.144073
-0.15007
-0.155976
-0.161796
-0.167472
-0.173006
-0.178339
-0.183471
-0.188344
-0.192957
-0.197254
-0.201236
-0.204852
-0.208101
-0.210942
-0.213375
-0.215368
-0.216922
-0.218017
-0.218653
-0.218826
-0.218535
-0.217788
-0.216586
-0.214949
-0.212878
-0.210405
-0.207532
-0.2043
-0.20071
-0.196812
-0.192605
-0.188144
-0.18343
-0.178519
-0.173409
-0.168158
-0.162763
-0.157278
-0.1517
-0.146079
-0.14041
-0.134739
-0.129057
-0.123407
-0.117781
-0.112228
-0.106747
-0.101397
-0.0961111
-0.090762
-0.0851839
-0.0790052
-0.0720992
-0.0642383
-0.0554958
-0.0460803
-0.0362382
-0.0265571
-0.0172726
-0.00905756
-0.0020716
0.00310211
0.00641565
0.00749407
0.0065768
0.00417935
0.000594686
-0.00253624
-0.0051329
-0.00645411
0.0426183
0.0441706
0.0472487
0.0499725
0.052308
0.0526835
0.0510163
0.0469052
0.040166
0.0314684
0.0207266
0.00885377
-0.00422724
-0.0174385
-0.0308737
-0.0434643
-0.0551453
-0.0655234
-0.0745251
-0.0824517
-0.0893407
-0.0957585
-0.101803
-0.107793
-0.113766
-0.119794
-0.12587
-0.131938
-0.138019
-0.144052
-0.150054
-0.15596
-0.161786
-0.167462
-0.173003
-0.178335
-0.183474
-0.188346
-0.192965
-0.197262
-0.201249
-0.204864
-0.208118
-0.210958
-0.213394
-0.215386
-0.216941
-0.218035
-0.218672
-0.218844
-0.218552
-0.217804
-0.2166
-0.214962
-0.212888
-0.210415
-0.207537
-0.204305
-0.20071
-0.196812
-0.192599
-0.18814
-0.183419
-0.178509
-0.173393
-0.168144
-0.162743
-0.157261
-0.151678
-0.14606
-0.140386
-0.134717
-0.129032
-0.123385
-0.117753
-0.112203
-0.106732
-0.101383
-0.0961236
-0.0907752
-0.0852577
-0.0790779
-0.0722029
-0.0643386
-0.0555384
-0.0461211
-0.0361318
-0.0264856
-0.0171028
-0.00891344
-0.00184957
0.00331043
0.00664046
0.00770106
0.00658891
0.00419273
0.000404713
-0.00275759
-0.00531592
-0.00663871
0.0424628
0.0440257
0.0471026
0.0499013
0.0522357
0.0527883
0.0511235
0.0472503
0.0405182
0.0320461
0.0213157
0.00959692
-0.00347005
-0.016637
-0.0300576
-0.0427229
-0.0544285
-0.0650079
-0.073991
-0.0821239
-0.0889784
-0.0955194
-0.101525
-0.107556
-0.113499
-0.119535
-0.125609
-0.131681
-0.13776
-0.143798
-0.149799
-0.15571
-0.161536
-0.167216
-0.172756
-0.178092
-0.18323
-0.188104
-0.192723
-0.197019
-0.201006
-0.204618
-0.207871
-0.210705
-0.213141
-0.215124
-0.216679
-0.217763
-0.2184
-0.21856
-0.218268
-0.217509
-0.216305
-0.214657
-0.212583
-0.210103
-0.207225
-0.203989
-0.200394
-0.196496
-0.192284
-0.187828
-0.183108
-0.178206
-0.173091
-0.167854
-0.162454
-0.156987
-0.151405
-0.145805
-0.140132
-0.134485
-0.128801
-0.123176
-0.117546
-0.112013
-0.106562
-0.101194
-0.0959593
-0.0905184
-0.0850268
-0.0786811
-0.0718211
-0.0637904
-0.0549716
-0.0454936
-0.0355157
-0.0259174
-0.0165453
-0.00850475
-0.001449
0.00349639
0.00682253
0.00765831
0.00654688
0.00398388
0.000199573
-0.00303351
-0.00558999
-0.00692294
0.0422948
0.0438692
0.0469447
0.0498244
0.0521576
0.0529015
0.0512393
0.0476229
0.0408985
0.0326699
0.0219519
0.0103994
-0.0026524
-0.0157715
-0.0291763
-0.0419223
-0.0536141
-0.0643657
-0.0733389
-0.0816611
-0.08851
-0.0951831
-0.101187
-0.107268
-0.113209
-0.119254
-0.125327
-0.131402
-0.137481
-0.143523
-0.149523
-0.155441
-0.161265
-0.166951
-0.17249
-0.177831
-0.182968
-0.187844
-0.192462
-0.196758
-0.200744
-0.204352
-0.207604
-0.210432
-0.212867
-0.214841
-0.216396
-0.217469
-0.218106
-0.218253
-0.217962
-0.21719
-0.215986
-0.214328
-0.212255
-0.209766
-0.206889
-0.203648
-0.200054
-0.196154
-0.191943
-0.187491
-0.182772
-0.177879
-0.172765
-0.16754
-0.162141
-0.156691
-0.15111
-0.14553
-0.139859
-0.134234
-0.128551
-0.122951
-0.117322
-0.111807
-0.106357
-0.100967
-0.0957336
-0.0901904
-0.0847026
-0.078198
-0.0713452
-0.0631677
-0.0543596
-0.044816
-0.0348504
-0.0253037
-0.0159432
-0.00806343
-0.00101644
0.0036972
0.00701913
0.00761216
0.0065015
0.00375835
-2.19454e-05
-0.00333147
-0.00588594
-0.00722986
0.0421134
0.0437003
0.0467743
0.0497413
0.0520733
0.0530237
0.0513644
0.0480252
0.0413091
0.0333435
0.0226388
0.011266
-0.00176947
-0.0148369
-0.0282247
-0.0410578
-0.0527346
-0.0636721
-0.0726347
-0.0811614
-0.0880043
-0.09482
-0.100821
-0.106957
-0.112897
-0.118951
-0.125023
-0.131102
-0.137179
-0.143227
-0.149226
-0.15515
-0.160972
-0.166665
-0.172202
-0.177548
-0.182684
-0.187563
-0.19218
-0.196475
-0.20046
-0.204065
-0.207317
-0.210137
-0.212572
-0.214536
-0.216091
-0.217151
-0.217788
-0.217922
-0.217631
-0.216846
-0.215643
-0.213973
-0.2119
-0.209402
-0.206526
-0.203279
-0.199686
-0.195786
-0.191575
-0.187127
-0.18241
-0.177525
-0.172412
-0.167202
-0.161804
-0.156372
-0.150791
-0.145234
-0.139563
-0.133963
-0.128281
-0.122708
-0.11708
-0.111585
-0.106137
-0.100721
-0.0954898
-0.0898361
-0.0843526
-0.0776763
-0.0708314
-0.0624953
-0.0536986
-0.0440844
-0.034132
-0.0246411
-0.0152931
-0.00758687
-0.000549356
0.00391404
0.00723142
0.00756231
0.00645249
0.00351481
-0.00026115
-0.00365322
-0.00620551
-0.00756129
0.0419176
0.0435178
0.0465903
0.0496517
0.0519823
0.0531557
0.0514994
0.0484597
0.0417526
0.0340709
0.0233806
0.0122017
-0.000816044
-0.0138277
-0.0271971
-0.0401244
-0.0517849
-0.0629231
-0.0718742
-0.0806217
-0.0874582
-0.0944279
-0.100426
-0.106621
-0.11256
-0.118624
-0.124694
-0.130777
-0.136853
-0.142907
-0.148905
-0.154835
-0.160657
-0.166356
-0.171892
-0.177243
-0.182378
-0.187259
-0.191875
-0.19617
-0.200155
-0.203755
-0.207006
-0.209819
-0.212253
-0.214207
-0.215761
-0.216808
-0.217445
-0.217565
-0.217273
-0.216475
-0.215271
-0.213589
-0.211516
-0.209009
-0.206133
-0.202881
-0.199289
-0.195388
-0.191178
-0.186735
-0.182018
-0.177143
-0.172032
-0.166836
-0.161439
-0.156027
-0.150448
-0.144913
-0.139244
-0.13367
-0.12799
-0.122445
-0.116819
-0.111346
-0.105898
-0.100455
-0.0952265
-0.0894536
-0.0839747
-0.077113
-0.0702766
-0.0617691
-0.0529849
-0.0432943
-0.0333562
-0.0239256
-0.0145911
-0.00707226
-4.49741e-05
0.00414819
0.00746067
0.00750849
0.00639957
0.00325183
-0.000519454
-0.00400065
-0.0065506
-0.00791918
0.0417061
0.0433208
0.0463916
0.0495548
0.0518839
0.0532982
0.0516452
0.0489289
0.0422314
0.0348564
0.0241816
0.0132121
0.000213505
-0.0127379
-0.0260875
-0.0391163
-0.0507594
-0.0621144
-0.0710531
-0.080039
-0.0868685
-0.0940045
-0.0999991
-0.106258
-0.112196
-0.118271
-0.124339
-0.130427
-0.136501
-0.142562
-0.148558
-0.154496
-0.160316
-0.166022
-0.171557
-0.176913
-0.182047
-0.186932
-0.191546
-0.195841
-0.199824
-0.20342
-0.206671
-0.209475
-0.211909
-0.213851
-0.215405
-0.216437
-0.217074
-0.217179
-0.216887
-0.216074
-0.214871
-0.213174
-0.211102
-0.208585
-0.20571
-0.202451
-0.19886
-0.194958
-0.19075
-0.186311
-0.181596
-0.176731
-0.171621
-0.166441
-0.161046
-0.155654
-0.150077
-0.144567
-0.1389
-0.133354
-0.127675
-0.122162
-0.116537
-0.111087
-0.105641
-0.100169
-0.0949423
-0.0890405
-0.0835666
-0.0765047
-0.0696774
-0.060985
-0.0522143
-0.0424411
-0.0325185
-0.0231529
-0.0138331
-0.00651656
0.000499678
0.00440104
0.00770822
0.00745037
0.00634243
0.00296785
-0.00079838
-0.00437583
-0.00692325
-0.00830564
0.0414777
0.0431081
0.046177
0.0494503
0.0517778
0.0534521
0.0518026
0.0494355
0.0427485
0.0357046
0.0250466
0.0143033
0.00132525
-0.0115611
-0.0248893
-0.0380278
-0.049652
-0.0612411
-0.0701663
-0.0794097
-0.0862317
-0.0935473
-0.0995384
-0.105867
-0.111802
-0.117889
-0.123956
-0.130049
-0.136121
-0.142189
-0.148183
-0.154129
-0.159948
-0.165662
-0.171195
-0.176557
-0.181689
-0.186578
-0.191191
-0.195485
-0.199467
-0.203059
-0.206308
-0.209104
-0.211537
-0.213466
-0.21502
-0.216037
-0.216674
-0.216762
-0.216471
-0.21564
-0.214438
-0.212727
-0.210655
-0.208126
-0.205252
-0.201987
-0.198397
-0.194494
-0.190287
-0.185853
-0.181139
-0.176286
-0.171177
-0.166014
-0.160621
-0.155252
-0.149676
-0.144194
-0.138528
-0.133013
-0.127336
-0.121856
-0.116232
-0.110808
-0.105364
-0.0998589
-0.0946353
-0.0885944
-0.0831259
-0.0758478
-0.0690305
-0.0601383
-0.0513821
-0.0415199
-0.0316138
-0.0223186
-0.0130145
-0.00591649
0.00108782
0.00467408
0.00797554
0.00738761
0.00628072
0.0026612
-0.00109958
-0.00478095
-0.00732564
-0.00872295
0.0412615
0.0428998
0.0457726
0.049106
0.0515264
0.0533795
0.0520044
0.0498725
0.043481
0.0366798
0.0263085
0.015717
0.00296999
-0.00989667
-0.023189
-0.0363946
-0.0481835
-0.0598925
-0.0690484
-0.0784467
-0.0854455
-0.0928918
-0.0989433
-0.10533
-0.111234
-0.117328
-0.123397
-0.129493
-0.135565
-0.141637
-0.147632
-0.153583
-0.159402
-0.165121
-0.170654
-0.17602
-0.18115
-0.18604
-0.190649
-0.194943
-0.198918
-0.202506
-0.205747
-0.208536
-0.210958
-0.212878
-0.214419
-0.215426
-0.21605
-0.216127
-0.215823
-0.214982
-0.213769
-0.212048
-0.209969
-0.207432
-0.204555
-0.201286
-0.197697
-0.193794
-0.189593
-0.185163
-0.180461
-0.175616
-0.170524
-0.165374
-0.16
-0.154648
-0.149096
-0.143633
-0.137994
-0.132501
-0.126852
-0.121396
-0.1158
-0.110394
-0.104993
-0.0994613
-0.0941972
-0.0880518
-0.0824448
-0.0750284
-0.0680252
-0.0590238
-0.0501361
-0.0402188
-0.0303516
-0.0210865
-0.0119877
-0.00504004
0.00170749
0.00506143
0.00808973
0.00726535
0.00593106
0.00212404
-0.00168404
-0.00542917
-0.007859
-0.00926538
0.0410616
0.0426991
0.0453262
0.0486533
0.0511952
0.05304
0.0522622
0.0501365
0.0446458
0.037874
0.0283198
0.0177755
0.00556061
-0.00724887
-0.0203944
-0.0335428
-0.0456341
-0.0572983
-0.0670859
-0.0764579
-0.0840954
-0.0915301
-0.0979526
-0.104336
-0.11034
-0.116433
-0.122512
-0.128606
-0.134681
-0.140751
-0.146752
-0.152701
-0.158526
-0.164242
-0.169778
-0.175143
-0.18027
-0.185159
-0.189758
-0.194051
-0.198009
-0.201595
-0.204811
-0.207599
-0.209989
-0.211909
-0.213413
-0.21442
-0.215005
-0.215081
-0.214741
-0.2139
-0.212655
-0.210935
-0.208834
-0.206298
-0.203409
-0.200141
-0.196554
-0.192652
-0.188469
-0.184041
-0.17937
-0.174527
-0.169481
-0.164332
-0.159018
-0.153667
-0.148184
-0.142723
-0.137161
-0.13167
-0.126105
-0.120651
-0.115133
-0.109729
-0.104335
-0.0988058
-0.0932933
-0.0871558
-0.081023
-0.0736254
-0.0660791
-0.0571113
-0.0479652
-0.0380915
-0.0283729
-0.0191508
-0.0105565
-0.00364198
0.00233997
0.00567811
0.00788363
0.00706505
0.00524433
0.00145401
-0.00240577
-0.0061411
-0.00854682
-0.00995199
0.0408007
0.0424374
0.0448346
0.0481551
0.0509406
0.0527742
0.0525405
0.0504216
0.0459035
0.0391634
0.0304916
0.0199983
0.00835806
-0.00438966
-0.0173767
-0.0304633
-0.0428812
-0.0544969
-0.0649667
-0.0743103
-0.0826376
-0.0900598
-0.0968828
-0.103262
-0.109376
-0.115466
-0.121556
-0.127648
-0.133727
-0.139795
-0.145802
-0.151749
-0.157579
-0.163294
-0.168833
-0.174195
-0.17932
-0.184207
-0.188796
-0.193087
-0.197026
-0.200612
-0.2038
-0.206587
-0.208942
-0.210861
-0.212326
-0.213332
-0.213876
-0.213953
-0.213572
-0.212731
-0.211453
-0.209733
-0.207607
-0.205072
-0.202172
-0.198905
-0.195321
-0.19142
-0.187255
-0.182828
-0.178192
-0.173351
-0.168354
-0.163208
-0.157956
-0.152607
-0.147199
-0.14174
-0.136262
-0.130773
-0.125298
-0.119845
-0.114414
-0.109012
-0.103624
-0.0980979
-0.0923172
-0.0861883
-0.0794877
-0.0721104
-0.0639776
-0.055046
-0.0456209
-0.0357944
-0.0262363
-0.0170605
-0.00901099
-0.00213229
0.00302294
0.00634403
0.00766107
0.00684874
0.00455833
0.000787282
-0.0033341
-0.00705987
-0.00932817
-0.0107321
0.0397942
0.0414292
0.0442866
0.0475995
0.0512563
0.0531005
0.0539677
0.0518916
0.0482266
0.041552
0.0335492
0.0231313
0.0117259
-0.000946091
-0.0142331
-0.0272559
-0.0403342
-0.0519068
-0.0631179
-0.0724378
-0.0813507
-0.0887619
-0.0958384
-0.102214
-0.108337
-0.114426
-0.120518
-0.126607
-0.132711
-0.138776
-0.144814
-0.150758
-0.156622
-0.162334
-0.167904
-0.173265
-0.178414
-0.183299
-0.187903
-0.192193
-0.196135
-0.199719
-0.202896
-0.205682
-0.208013
-0.209932
-0.21136
-0.212366
-0.212865
-0.212942
-0.212513
-0.211672
-0.210345
-0.208626
-0.206457
-0.203923
-0.200988
-0.197723
-0.194118
-0.190218
-0.186049
-0.181624
-0.177
-0.17216
-0.167193
-0.162049
-0.156844
-0.151497
-0.14615
-0.140693
-0.135289
-0.129802
-0.124411
-0.11896
-0.113628
-0.108228
-0.102912
-0.0973892
-0.0914367
-0.0853156
-0.0781315
-0.0707713
-0.0620053
-0.0531066
-0.0431167
-0.0333404
-0.0235472
-0.0144312
-0.00664006
0.00018047
0.00467451
0.00794852
0.00841149
0.00757565
0.00415518
0.000392453
-0.00461659
-0.00832508
-0.0107949
-0.0121967
0.0387099
0.0403441
0.0436223
0.0469714
0.0515696
0.0533934
0.055517
0.0534896
0.0508235
0.0442209
0.0369051
0.0265695
0.0153844
0.00279455
-0.01085
-0.023804
-0.0376525
-0.0491787
-0.0612127
-0.0705072
-0.0800283
-0.0874277
-0.0947312
-0.101103
-0.107216
-0.113302
-0.119397
-0.125484
-0.131614
-0.137678
-0.143749
-0.149691
-0.155591
-0.161302
-0.166906
-0.172264
-0.177442
-0.182325
-0.186947
-0.191235
-0.195181
-0.198764
-0.20193
-0.204715
-0.207021
-0.208938
-0.210329
-0.211334
-0.211785
-0.211862
-0.21138
-0.21054
-0.20916
-0.207441
-0.205224
-0.202691
-0.199719
-0.196454
-0.192826
-0.188928
-0.184752
-0.180328
-0.175717
-0.170879
-0.165943
-0.1608
-0.155644
-0.150299
-0.145018
-0.139563
-0.134238
-0.128753
-0.123452
-0.118003
-0.112779
-0.107381
-0.102154
-0.0966343
-0.0905261
-0.0844134
-0.0767286
-0.069387
-0.0599226
-0.0510593
-0.0404153
-0.0306932
-0.0206199
-0.011569
-0.00402702
0.00272978
0.00654016
0.00976212
0.00923093
0.00836758
0.00369223
-5.58655e-05
-0.00594638
-0.00971042
-0.0123757
-0.0137762
0.0377003
0.0393485
0.04262
0.0462349
0.0508189
0.0533918
0.0556338
0.0545902
0.052129
0.0465481
0.039362
0.029864
0.018775
0.00665469
-0.00694899
-0.0198963
-0.0337911
-0.0457
-0.0578183
-0.0676334
-0.0772267
-0.0849844
-0.0922718
-0.0987164
-0.104708
-0.110723
-0.116815
-0.122812
-0.128942
-0.134922
-0.140993
-0.146857
-0.152757
-0.158391
-0.163996
-0.169278
-0.174456
-0.17926
-0.183881
-0.188088
-0.192033
-0.195532
-0.198696
-0.201398
-0.203701
-0.205537
-0.206924
-0.207856
-0.208303
-0.208318
-0.207832
-0.206946
-0.205563
-0.203821
-0.201601
-0.19907
-0.196096
-0.192862
-0.189233
-0.185397
-0.181222
-0.176889
-0.17228
-0.167563
-0.162631
-0.157636
-0.152485
-0.147311
-0.142037
-0.136772
-0.131455
-0.126176
-0.120884
-0.115652
-0.110438
-0.105236
-0.100138
-0.0946549
-0.0885715
-0.0822069
-0.0744637
-0.0667027
-0.0571647
-0.0479977
-0.03731
-0.027639
-0.0175983
-0.00902598
-0.00156545
0.00437518
0.00807377
0.0103165
0.00960969
0.00781054
0.00304486
-0.00140463
-0.00726822
-0.0112816
-0.0139372
-0.0153523
0.03661
0.0382733
0.0415376
0.0454397
0.0500083
0.05339
0.0556354
0.0557749
0.0533483
0.0490037
0.0418796
0.0333845
0.0223765
0.0108098
-0.00270528
-0.0156549
-0.0294686
-0.0418397
-0.0538973
-0.064337
-0.0738939
-0.0820871
-0.0893594
-0.0959025
-0.101892
-0.107823
-0.113913
-0.119804
-0.125931
-0.131814
-0.137883
-0.143655
-0.149553
-0.155098
-0.1607
-0.165893
-0.171068
-0.175781
-0.1804
-0.184512
-0.188455
-0.191858
-0.195021
-0.197625
-0.199927
-0.20167
-0.203056
-0.203902
-0.204349
-0.204292
-0.203806
-0.202868
-0.201485
-0.199716
-0.197497
-0.194968
-0.191996
-0.188797
-0.18517
-0.181404
-0.177231
-0.173004
-0.168398
-0.16382
-0.158891
-0.154066
-0.148918
-0.143942
-0.13867
-0.133627
-0.128312
-0.123272
-0.117982
-0.113003
-0.107791
-0.102818
-0.097722
-0.092281
-0.0862101
-0.0795484
-0.0718343
-0.0635766
-0.0540872
-0.0445568
-0.033934
-0.0243163
-0.0143456
-0.00633833
0.00106092
0.00602335
0.00968008
0.0107368
0.0100157
0.00709594
0.0023458
-0.00286107
-0.00869561
-0.0129782
-0.0156234
-0.0170544
0.0354328
0.0371123
0.0403688
0.0445809
0.049133
0.0533881
0.0556371
0.0570543
0.0546649
0.0516553
0.0445982
0.0371862
0.0262655
0.0152966
0.00187726
-0.0110748
-0.0248009
-0.0376711
-0.0496633
-0.0607775
-0.0702949
-0.0789584
-0.0862143
-0.092864
-0.0988499
-0.104691
-0.110778
-0.116556
-0.12268
-0.128459
-0.134524
-0.140198
-0.146093
-0.151542
-0.157141
-0.162237
-0.16741
-0.172024
-0.176641
-0.180652
-0.184593
-0.187891
-0.191052
-0.193552
-0.195852
-0.197494
-0.198879
-0.199632
-0.200079
-0.199944
-0.199459
-0.198464
-0.197081
-0.195282
-0.193064
-0.190539
-0.187568
-0.184408
-0.180782
-0.177093
-0.172922
-0.16881
-0.164205
-0.159779
-0.154852
-0.150212
-0.145067
-0.140304
-0.135035
-0.13023
-0.124918
-0.120136
-0.114849
-0.110142
-0.104933
-0.100206
-0.0951131
-0.0897175
-0.08366
-0.0766776
-0.0689951
-0.060201
-0.0507639
-0.0408412
-0.0302884
-0.0207284
-0.0108333
-0.0034361
0.00389699
0.00780311
0.0114146
0.0111905
0.0104541
0.00632427
0.00159093
-0.00443381
-0.010237
-0.0148102
-0.0174442
-0.0188923
0.0343217
0.036004
0.039009
0.043269
0.0478285
0.0523837
0.0551376
0.0570751
0.0556457
0.0532112
0.0471995
0.040275
0.0303224
0.0196549
0.00697693
-0.00591072
-0.0193195
-0.0323284
-0.0444354
-0.0557764
-0.0655669
-0.0744003
-0.081806
-0.0885018
-0.0943845
-0.100189
-0.106132
-0.111864
-0.117813
-0.123549
-0.129444
-0.135077
-0.140805
-0.146215
-0.15165
-0.156707
-0.16172
-0.166294
-0.170757
-0.174726
-0.17852
-0.181776
-0.184802
-0.18726
-0.18944
-0.191041
-0.192326
-0.193043
-0.193414
-0.193248
-0.192716
-0.191699
-0.190304
-0.188494
-0.186299
-0.183775
-0.180866
-0.177722
-0.174197
-0.170538
-0.166505
-0.162439
-0.158008
-0.153642
-0.148921
-0.144354
-0.139443
-0.134765
-0.129753
-0.125043
-0.120006
-0.115326
-0.110327
-0.105728
-0.100784
-0.0961555
-0.0913001
-0.0859276
-0.0798475
-0.0727611
-0.0648987
-0.0559313
-0.0464329
-0.0364063
-0.0261782
-0.0166945
-0.00751553
-0.000410193
0.00599612
0.00943997
0.0120643
0.0113014
0.00969525
0.00509034
-1.53602e-05
-0.00628616
-0.0119992
-0.0165798
-0.0192937
-0.0207446
0.0327893
0.034469
0.0372072
0.0414451
0.0464859
0.0510067
0.0547694
0.0566971
0.0568377
0.0544366
0.0501992
0.0433476
0.0349301
0.0243659
0.0127064
-6.24409e-05
-0.0131151
-0.0260141
-0.0383708
-0.0496315
-0.0598767
-0.0686656
-0.0763499
-0.0830349
-0.0888585
-0.0946592
-0.100338
-0.106067
-0.111732
-0.117464
-0.123083
-0.128713
-0.134172
-0.139579
-0.144752
-0.149806
-0.154562
-0.159134
-0.163348
-0.167314
-0.170871
-0.174126
-0.17693
-0.179387
-0.181368
-0.182968
-0.184085
-0.184801
-0.185042
-0.184876
-0.184261
-0.183245
-0.181819
-0.18001
-0.177846
-0.175323
-0.172507
-0.169365
-0.165998
-0.162342
-0.15853
-0.154467
-0.150318
-0.145955
-0.14157
-0.137006
-0.132479
-0.127805
-0.123217
-0.11851
-0.113931
-0.109254
-0.104737
-0.100141
-0.0956692
-0.0910431
-0.086476
-0.0811128
-0.0749807
-0.0679319
-0.059784
-0.0508835
-0.0412422
-0.0313065
-0.021476
-0.0120889
-0.00392281
0.0031023
0.00801259
0.0114068
0.0123284
0.0115552
0.00847568
0.00390205
-0.00212154
-0.00834163
-0.0145366
-0.0190881
-0.0215867
-0.0230342
0.030231
0.0319032
0.0348947
0.0391406
0.0452486
0.0497728
0.0555021
0.0574294
0.0595482
0.0572255
0.0547466
0.0480085
0.0408977
0.0304646
0.0193198
0.00668868
-0.00667965
-0.0194646
-0.0325426
-0.0437254
-0.0545901
-0.0633364
-0.070963
-0.0776368
-0.0829433
-0.0887394
-0.0940576
-0.0997812
-0.105169
-0.110897
-0.116254
-0.121879
-0.127087
-0.132489
-0.137418
-0.142468
-0.146987
-0.151554
-0.155536
-0.159499
-0.162829
-0.166081
-0.168668
-0.171123
-0.172903
-0.174502
-0.17544
-0.176156
-0.176251
-0.176085
-0.175366
-0.17435
-0.172872
-0.171064
-0.168905
-0.166384
-0.163639
-0.160499
-0.157271
-0.153617
-0.150012
-0.145952
-0.142076
-0.137716
-0.133666
-0.129106
-0.124969
-0.120299
-0.116149
-0.111446
-0.107343
-0.10267
-0.0986611
-0.0940688
-0.0901854
-0.0855636
-0.0816893
-0.0763356
-0.0703983
-0.0633859
-0.054779
-0.0459446
-0.0357407
-0.0259014
-0.0158856
-0.00661397
0.00095982
0.00787856
0.0114587
0.0147664
0.0139436
0.0131208
0.00809292
0.00354205
-0.00442233
-0.0106396
-0.0178444
-0.0224174
-0.024845
-0.0262848
0.027838
0.0294221
0.0323981
0.0367792
0.0428388
0.0482207
0.0539126
0.0574056
0.0595818
0.0591782
0.0567827
0.0520086
0.0450131
0.0362531
0.0252551
0.0137017
0.00045879
-0.0119305
-0.0249292
-0.0361606
-0.0469768
-0.0557604
-0.0633092
-0.0697128
-0.074909
-0.0802434
-0.0855578
-0.0907991
-0.0961835
-0.10144
-0.106793
-0.111958
-0.117162
-0.122114
-0.12704
-0.131651
-0.136167
-0.140311
-0.144289
-0.147849
-0.151177
-0.154053
-0.156638
-0.158754
-0.160533
-0.16184
-0.162778
-0.163262
-0.163357
-0.163031
-0.162312
-0.161217
-0.15974
-0.157943
-0.155785
-0.153371
-0.150627
-0.147693
-0.144467
-0.141116
-0.137513
-0.133849
-0.129975
-0.126097
-0.12205
-0.118048
-0.113914
-0.109867
-0.10572
-0.101694
-0.0975942
-0.0936406
-0.0896341
-0.0857907
-0.0819099
-0.0780199
-0.0742631
-0.0694189
-0.0635643
-0.0567156
-0.0481576
-0.039431
-0.0292983
-0.0199577
-0.0100495
-0.00190465
0.00554657
0.0107908
0.0142819
0.0156659
0.0147863
0.0121207
0.00706481
0.00104766
-0.00685575
-0.0138525
-0.0209919
-0.0256834
-0.0280914
-0.0294528
0.025254
0.0267429
0.0297054
0.0342291
0.0402365
0.0465447
0.0521961
0.0573799
0.0595605
0.0612795
0.0589395
0.056328
0.0494338
0.0425038
0.031641
0.0212704
0.00817378
-0.00377107
-0.0166411
-0.0279032
-0.0386296
-0.0474311
-0.0549404
-0.0610414
-0.0662333
-0.071069
-0.0763794
-0.0810999
-0.0864802
-0.0912286
-0.0965775
-0.101245
-0.106445
-0.110911
-0.115833
-0.119971
-0.124483
-0.12817
-0.132145
-0.135269
-0.138595
-0.141064
-0.143648
-0.145397
-0.147175
-0.148168
-0.149105
-0.149339
-0.149434
-0.148934
-0.148215
-0.147035
-0.145559
-0.143774
-0.141618
-0.139319
-0.136577
-0.133864
-0.13064
-0.127616
-0.124016
-0.120779
-0.116909
-0.11355
-0.109506
-0.106107
-0.101976
-0.0986022
-0.0944584
-0.0911637
-0.0870671
-0.0838898
-0.0798863
-0.0768516
-0.0729737
-0.0698738
-0.0661203
-0.0618505
-0.0560309
-0.0493962
-0.0409166
-0.0323376
-0.0223155
-0.0135356
-0.00375056
0.0031575
0.0104995
0.0139133
0.0173305
0.0165975
0.0156902
0.0109873
0.00595461
-0.00164589
-0.00948345
-0.017322
-0.0243907
-0.0291992
-0.0315971
-0.0328736
0.0227744
0.0242452
0.0269893
0.0314793
0.0371834
0.0435789
0.0495663
0.055042
0.0586066
0.060754
0.060354
0.0582209
0.0534904
0.0470114
0.0383001
0.0282868
0.0169454
0.00523235
-0.00657314
-0.0177067
-0.0278914
-0.0366041
-0.0439062
-0.0499227
-0.0548484
-0.0595851
-0.0643642
-0.0689816
-0.0737347
-0.0783824
-0.0831102
-0.0876793
-0.0922665
-0.0966361
-0.100958
-0.105003
-0.108935
-0.112531
-0.115955
-0.118993
-0.121806
-0.124196
-0.126319
-0.127997
-0.129379
-0.130311
-0.130931
-0.131117
-0.130986
-0.130453
-0.129613
-0.128417
-0.12693
-0.125148
-0.123099
-0.120824
-0.118309
-0.11564
-0.11276
-0.1098
-0.106656
-0.103503
-0.100191
-0.0969347
-0.0935407
-0.0902592
-0.086857
-0.0836149
-0.0802649
-0.0771127
-0.0738607
-0.0708344
-0.0677125
-0.0648349
-0.0617669
-0.0588206
-0.0556477
-0.051525
-0.0461997
-0.0397044
-0.0319505
-0.023529
-0.0146599
-0.00611994
0.00190044
0.00846078
0.0136891
0.0166747
0.017995
0.0168152
0.0140709
0.00897828
0.00271791
-0.00512922
-0.0130984
-0.0209742
-0.0276089
-0.0323565
-0.0350165
-0.0362757
0.0187013
0.0201664
0.0224112
0.0268589
0.0334469
0.0397552
0.0477455
0.0531768
0.0591868
0.0613585
0.0637326
0.0616878
0.0596869
0.0533522
0.0467883
0.0369548
0.0268481
0.0153129
0.00396097
-0.00703229
-0.0170684
-0.0256975
-0.0323743
-0.0383709
-0.0422222
-0.0469549
-0.0508483
-0.0554616
-0.0594388
-0.0640824
-0.0680494
-0.0726145
-0.0764562
-0.0808221
-0.0844163
-0.088457
-0.0916828
-0.0952762
-0.0980231
-0.101059
-0.103235
-0.105623
-0.107164
-0.108841
-0.109711
-0.110642
-0.110839
-0.111025
-0.110578
-0.110045
-0.109012
-0.107817
-0.106276
-0.104495
-0.102541
-0.100267
-0.0980006
-0.0953343
-0.0928577
-0.0899004
-0.08731
-0.0841598
-0.0815415
-0.078288
-0.0757143
-0.0724357
-0.0699638
-0.0667246
-0.064397
-0.0612476
-0.0590913
-0.0560677
-0.0540962
-0.0512212
-0.0494285
-0.0464848
-0.0447365
-0.0406312
-0.0362108
-0.0297912
-0.0224199
-0.0141239
-0.00589174
0.00249187
0.00914896
0.0155559
0.0185648
0.0214356
0.0200153
0.0187786
0.0133075
0.0082234
-0.000411004
-0.00818066
-0.0181148
-0.0258908
-0.0334057
-0.0381204
-0.0398882
-0.041141
0.0147576
0.0159722
0.0181974
0.0224046
0.0289064
0.0357282
0.0437367
0.0505776
0.056747
0.0611138
0.0636826
0.0643294
0.0625741
0.0590612
0.0527868
0.0454751
0.0356192
0.0259587
0.0147807
0.00499204
-0.00492469
-0.0126987
-0.0192267
-0.024358
-0.0280654
-0.0318597
-0.035698
-0.0393691
-0.0432994
-0.0470068
-0.0509279
-0.0545654
-0.0583622
-0.0618138
-0.0653643
-0.0685122
-0.0716958
-0.0744289
-0.0771357
-0.0793583
-0.0814975
-0.0831368
-0.0846435
-0.0856556
-0.0864961
-0.086868
-0.0870409
-0.0867919
-0.0863275
-0.0855054
-0.0844617
-0.0831382
-0.081595
-0.0798596
-0.0779114
-0.075863
-0.0736119
-0.0713516
-0.0688994
-0.0665247
-0.0639673
-0.0615656
-0.0589883
-0.0566343
-0.0541087
-0.051862
-0.0494446
-0.0473488
-0.0450806
-0.0431642
-0.0410715
-0.0393483
-0.0374434
-0.0359144
-0.0341973
-0.0326106
-0.0310367
-0.0281718
-0.023923
-0.0186573
-0.0114191
-0.00454044
0.00351654
0.00989487
0.0163126
0.0201386
0.0228796
0.0229311
0.0212916
0.0174245
0.0117885
0.00462028
-0.00413066
-0.0131825
-0.0230885
-0.0312838
-0.0386876
-0.0431534
-0.0448976
-0.0459213
0.0106628
0.0116958
0.0139453
0.0179469
0.0240677
0.0312039
0.0390043
0.0469328
0.0534242
0.0595335
0.0628199
0.0656153
0.0648842
0.0636346
0.0586297
0.0533631
0.0448245
0.0367284
0.0266555
0.0179314