/*--------------------------------*- C++ -*----------------------------------*\
| =========                 |                                                 |
| \\      /  F ield         | OpenFOAM: The Open Source CFD Toolbox           |
|  \\    /   O peration     | Version:  v2106                                 |
|   \\  /    A nd           | Website:  www.openfoam.com                      |
|    \\/     M anipulation  |                                                 |
\*---------------------------------------------------------------------------*/
FoamFile
{
    version     2.0;
    format      ascii;
    arch        "LSB;label=32;scalar=64";
    class       volScalarField;
    location    "0";
    object      expGpCoeffs21;
}
// * * * * * * * * * * * * * * * * * * * * * * * * * * * * * * * * * * * * * //

dimensions      [0 0 0 0 0 0 0];

internalField   nonuniform List<scalar> 
8000
(
0.000156294
0.000281276
0.000691576
0.00149635
0.00312379
0.0055563
0.0089577
0.0132479
0.0179583
0.0230737
0.0279262
0.032464
0.0361972
0.0390925
0.0409512
0.0418035
0.0418479
0.0411146
0.0400976
0.0388112
0.0377198
0.0368391
0.0362509
0.0359635
0.035684
0.0353906
0.0348509
0.0340582
0.0329858
0.0316362
0.0300458
0.028219
0.0262119
0.0240305
0.0217467
0.0193677
0.0169748
0.0145759
0.012255
0.0100196
0.00794845
0.00604849
0.00438579
0.00296559
0.00183494
0.000997206
0.000475859
0.000271934
0.000383346
0.000808815
0.0015214
0.00251761
0.00374888
0.00521001
0.00683611
0.00862077
0.0104895
0.0124352
0.0143809
0.0163197
0.018179
0.0199526
0.0215783
0.023051
0.024324
0.0253936
0.0262311
0.0268349
0.0271955
0.027313
0.0271969
0.0268488
0.0262944
0.0255366
0.0246379
0.0236061
0.0226036
0.0216416
0.0208452
0.0202186
0.0196187
0.019044
0.0181962
0.0170678
0.015507
0.013496
0.0111982
0.00861627
0.00615241
0.00384673
0.00213224
0.00103822
0.000755229
0.00132401
0.00237911
0.00390603
0.00529203
0.00634206
0.00693197
0.00716038
0.000146229
0.000271185
0.000646988
0.00145115
0.00303644
0.00546709
0.00889095
0.0131807
0.0179499
0.0230672
0.0279712
0.0325118
0.0362763
0.0391744
0.0410317
0.0418861
0.0418935
0.041161
0.0400969
0.0388105
0.0376884
0.0368075
0.0362347
0.0359473
0.0357006
0.0354074
0.0348744
0.0340818
0.033007
0.0316576
0.0300629
0.0282363
0.0262231
0.0240421
0.0217511
0.0193724
0.0169718
0.0145732
0.0122446
0.0100094
0.00793153
0.00603182
0.00436379
0.00294377
0.0018098
0.000972175
0.0004498
0.000245901
0.000358645
0.00078406
0.00150015
0.00249623
0.00373278
0.00519373
0.00682632
0.00861075
0.0104865
0.012432
0.0143846
0.0163232
0.0181888
0.0199621
0.0215929
0.0230655
0.024342
0.0254115
0.0262508
0.0268544
0.0272151
0.0273326
0.0272149
0.0268668
0.0263094
0.0255517
0.0246448
0.0236132
0.0225908
0.021629
0.0208306
0.0202041
0.0196288
0.0190539
0.0182304
0.0171012
0.0155431
0.0135308
0.0112062
0.00862334
0.00611913
0.00381361
0.00206455
0.000972153
0.000686698
0.00125795
0.0023707
0.00389827
0.00534043
0.00638979
0.00695041
0.00717877
0.000135362
0.000260288
0.000598841
0.00140233
0.00294211
0.00537076
0.00881888
0.0131083
0.0179409
0.0230601
0.0280199
0.0325635
0.0363616
0.0392628
0.0411187
0.0419753
0.0419428
0.0412111
0.0400963
0.0388098
0.0376545
0.0367734
0.0362172
0.0359298
0.0357186
0.0354254
0.0348999
0.0341073
0.03303
0.0316807
0.0300813
0.0282549
0.0262353
0.0240546
0.0217558
0.0193774
0.0169684
0.0145702
0.0122333
0.00999851
0.00791326
0.00601381
0.00434004
0.00292022
0.00178266
0.000945147
0.000421661
0.00021779
0.000331973
0.000757329
0.00147721
0.00247315
0.0037154
0.00517614
0.00681574
0.00859993
0.0104833
0.0124285
0.0143887
0.016327
0.0181994
0.0199725
0.0216088
0.0230812
0.0243615
0.0254308
0.0262721
0.0268756
0.0272362
0.0273537
0.0272343
0.0268862
0.0263257
0.0255681
0.0246524
0.0236209
0.022577
0.0216154
0.0208148
0.0201885
0.0196397
0.0190646
0.0182674
0.0171373
0.0155821
0.0135684
0.0112148
0.00863097
0.0060832
0.00377785
0.00199145
0.000900809
0.000612695
0.00118661
0.00236161
0.00388989
0.0053927
0.00644134
0.00697033
0.00719863
0.000123626
0.000248522
0.000546849
0.00134962
0.00284025
0.00526673
0.00874104
0.01303
0.0179311
0.0230524
0.0280725
0.0326193
0.0364537
0.0393584
0.0412125
0.0420716
0.041996
0.0412652
0.0400955
0.038809
0.0376178
0.0367366
0.0361983
0.0359109
0.0357381
0.0354449
0.0349273
0.0341349
0.0330547
0.0317057
0.0301012
0.0282751
0.0262485
0.0240681
0.0217609
0.0193829
0.0169648
0.0145669
0.0122212
0.0099867
0.00789353
0.00599436
0.0043144
0.00289478
0.00175335
0.00091596
0.000391276
0.000187435
0.000303171
0.000728463
0.00145243
0.00244822
0.00369663
0.00515715
0.00680433
0.00858824
0.0104799
0.0124248
0.0143931
0.0163311
0.0182108
0.0199836
0.0216259
0.023098
0.0243825
0.0254516
0.026295
0.0268984
0.0272591
0.0273766
0.0272552
0.0269072
0.0263432
0.0255857
0.0246605
0.0236291
0.0225622
0.0216007
0.0207978
0.0201717
0.0196514
0.0190762
0.0183073
0.0171763
0.0156242
0.013609
0.0112242
0.00863921
0.00604439
0.00373923
0.00191251
0.00082377
0.000532784
0.00110959
0.0023518
0.00388084
0.00544914
0.006497
0.00699183
0.00722008
0.000110954
0.000235815
0.000490706
0.00129476
0.00273025
0.0051544
0.008657
0.0129455
0.0179206
0.0230442
0.0281293
0.0326796
0.0365532
0.0394615
0.0413139
0.0421756
0.0420534
0.0413236
0.0400947
0.0388082
0.0375782
0.0366968
0.0361778
0.0358905
0.0357591
0.0354659
0.034957
0.0341647
0.0330815
0.0317327
0.0301226
0.0282969
0.0262627
0.0240826
0.0217664
0.0193888
0.016961
0.0145634
0.0122081
0.00997396
0.00787223
0.00597337
0.0042867
0.00286732
0.00172169
0.000884443
0.000358464
0.000154657
0.000272069
0.000697293
0.00142567
0.00242131
0.00367636
0.00513665
0.006792
0.00857563
0.0104761
0.0124207
0.0143978
0.0163355
0.0182232
0.0199957
0.0216443
0.0231163
0.0244052
0.0254741
0.0263198
0.0269231
0.0272838
0.0274012
0.0272778
0.0269299
0.0263621
0.0256047
0.0246692
0.0236381
0.0225461
0.0215848
0.0207794
0.0201535
0.0196641
0.0190887
0.0183504
0.0172185
0.0156697
0.0136528
0.0112343
0.0086481
0.00600249
0.00369753
0.00182727
0.000740579
0.000446492
0.00102641
0.00234121
0.00387108
0.00551912
0.00655711
0.00701505
0.00724324
0.000105017
0.000226137
0.000478507
0.00124828
0.00263788
0.00503156
0.00856221
0.0128252
0.0179062
0.023023
0.0281797
0.0327235
0.0366447
0.0395523
0.0414202
0.042287
0.0421155
0.0413867
0.0400938
0.0388073
0.0375355
0.0366539
0.0361558
0.0358684
0.0358155
0.0355217
0.0350211
0.034227
0.0331409
0.0317894
0.0301741
0.0283447
0.0263033
0.0241191
0.0217942
0.019412
0.0169748
0.0145729
0.0122082
0.00997003
0.00786004
0.00595776
0.00426464
0.00284274
0.00169308
0.000854429
0.000327205
0.000123176
0.000242213
0.000668368
0.001401
0.00239862
0.00366007
0.00512314
0.00678637
0.00857328
0.0104824
0.0124305
0.014416
0.016357
0.0182523
0.0200278
0.0216826
0.0231569
0.0244501
0.0255206
0.0263684
0.0269724
0.0273331
0.0274504
0.027325
0.0269762
0.0264048
0.025646
0.0247006
0.0236673
0.0225288
0.0215676
0.0207595
0.0201338
0.0196778
0.0191023
0.018397
0.0172639
0.0157165
0.0136974
0.0112318
0.00865105
0.00595195
0.00365207
0.0017374
0.000652637
0.000386156
0.000958513
0.00240711
0.00391387
0.00565049
0.00667522
0.00707612
0.0073002
0.000115122
0.000223854
0.000476174
0.00119809
0.00258687
0.00489826
0.00842663
0.0126151
0.0176923
0.0227915
0.027944
0.0325455
0.0364637
0.0394913
0.0413585
0.042372
0.0422014
0.0415883
0.0402934
0.0390604
0.0377955
0.0369308
0.0364715
0.0361981
0.0361885
0.035888
0.0353875
0.0345738
0.0334878
0.0321058
0.0304908
0.0286217
0.0265807
0.02435
0.0220256
0.0195935
0.0171568
0.014705
0.0123408
0.0100566
0.00794705
0.00600618
0.00431338
0.00286318
0.00171375
0.000859168
0.000332043
0.0001254
0.000244415
0.00068099
0.00141349
0.0024331
0.0036943
0.00518844
0.00685136
0.0086752
0.0105839
0.0125712
0.0145564
0.0165353
0.0184302
0.0202392
0.0218937
0.0233944
0.0246873
0.0257755
0.0266232
0.0272356
0.0275962
0.0277124
0.0275871
0.0272287
0.0266574
0.0258818
0.0249366
0.0238797
0.0227161
0.0217221
0.020896
0.0202327
0.0197773
0.0191395
0.0184371
0.0172217
0.0156708
0.013591
0.011127
0.00853844
0.00584109
0.0035916
0.00167768
0.000679469
0.000411964
0.00106571
0.00251177
0.00405846
0.00579234
0.00681469
0.00721478
0.00742984
0.000126033
0.000221389
0.000473653
0.00114389
0.00253178
0.00475431
0.00828023
0.0123882
0.0174614
0.0225414
0.0276895
0.0323532
0.0362682
0.0394255
0.0412919
0.0424638
0.0422951
0.0418231
0.040532
0.0393949
0.0381336
0.0373176
0.03686
0.0366009
0.0365913
0.0362836
0.0357831
0.0349482
0.0338625
0.0324474
0.0308328
0.0289208
0.0268802
0.0245994
0.0222755
0.0197895
0.0173533
0.0148477
0.012484
0.0101502
0.00804102
0.00605846
0.00436601
0.00288526
0.00173606
0.000864286
0.000337267
0.000127802
0.000246793
0.00069462
0.00142697
0.00247032
0.00373127
0.00525896
0.00692154
0.00878525
0.0106936
0.0127232
0.014708
0.0167278
0.0186224
0.0204674
0.0221215
0.0236508
0.0249435
0.0260509
0.0268983
0.0275197
0.0278802
0.0279954
0.02787
0.0275013
0.0269301
0.0261365
0.0251914
0.0241091
0.0229457
0.021913
0.0210864
0.0203619
0.0199052
0.0191823
0.0184792
0.0171718
0.0156215
0.0134762
0.0110139
0.00841683
0.00572138
0.00352629
0.00161319
0.000708444
0.000439832
0.00118148
0.0026248
0.0042146
0.00594552
0.00696528
0.00736451
0.00756983
0.000137815
0.000218727
0.000470932
0.00108536
0.0024723
0.00459887
0.00812214
0.0121432
0.0172121
0.0222714
0.0274147
0.0321456
0.036057
0.0393544
0.0412199
0.0425628
0.0423963
0.0420766
0.0407896
0.039756
0.0384988
0.0377353
0.0372796
0.0370358
0.0370262
0.0367107
0.0362103
0.0353525
0.034267
0.0328164
0.0312021
0.0292438
0.0272036
0.0248688
0.0225453
0.0200011
0.0175654
0.0150018
0.0126386
0.0102512
0.00814249
0.00611492
0.00442284
0.00290911
0.00176015
0.000869812
0.000342909
0.000130396
0.000249361
0.000709338
0.00144152
0.00251052
0.00377119
0.00533511
0.00699732
0.00890409
0.010812
0.0128873
0.0148717
0.0169357
0.0188298
0.0207138
0.0223676
0.0239277
0.0252201
0.0263482
0.0271954
0.0278265
0.0281869
0.0283009
0.0281756
0.0277957
0.0272247
0.0264115
0.0254666
0.0243568
0.0231937
0.0221193
0.0212919
0.0205014
0.0200433
0.0192286
0.0185246
0.0171178
0.0155683
0.0133521
0.0108917
0.00828551
0.00559211
0.00345577
0.00154354
0.000739733
0.000469926
0.00130648
0.00274685
0.0043832
0.00611093
0.0071279
0.00752619
0.007721
0.000150537
0.000215852
0.000467993
0.00102216
0.00240807
0.00443102
0.00795144
0.0118787
0.0169429
0.0219798
0.0271179
0.0319214
0.0358291
0.0392777
0.0411422
0.0426698
0.0425056
0.0423504
0.0410678
0.040146
0.038893
0.0381864
0.0377326
0.0375055
0.0374959
0.0371719
0.0366716
0.035789
0.0347038
0.0332148
0.0316009
0.0295926
0.0275529
0.0251596
0.0228367
0.0202297
0.0177945
0.0151682
0.0128056
0.0103603
0.00825206
0.00617589
0.00448421
0.00293485
0.00178617
0.000875779
0.000349
0.000133197
0.000252133
0.000725231
0.00145724
0.00255392
0.0038143
0.00541733
0.00707915
0.00903242
0.0109399
0.0130646
0.0150485
0.0171602
0.0190539
0.02098
0.0226333
0.0242267
0.0255188
0.0266692
0.0275163
0.0281578
0.0285182
0.0286308
0.0285055
0.0281136
0.0275427
0.0267084
0.0257638
0.0246242
0.0234614
0.0223419
0.0215139
0.020652
0.0201924
0.0192785
0.0185736
0.0170596
0.0155107
0.0132182
0.0107598
0.00814371
0.00545251
0.00337963
0.00146834
0.000773519
0.000502422
0.00144146
0.00287864
0.00456526
0.00628954
0.0073035
0.00770078
0.00788424
0.000164276
0.000212749
0.00046482
0.00095392
0.00233871
0.00424977
0.0077671
0.011593
0.0166522
0.021665
0.0267975
0.0316793
0.0355829
0.0391948
0.0410583
0.0427854
0.0426236
0.042646
0.0413683
0.0405672
0.0393188
0.0386735
0.0382218
0.0380126
0.038003
0.0376699
0.0371698
0.0362605
0.0351755
0.033645
0.0320315
0.0299692
0.02793
0.0254736
0.0231513
0.0204764
0.0180419
0.0153478
0.0129858
0.010478
0.00837037
0.00624173
0.00455047
0.00296266
0.00181427
0.000882223
0.000355578
0.000136221
0.000255127
0.000742393
0.00147422
0.00260079
0.00386085
0.00550612
0.00716752
0.00917099
0.011078
0.0132559
0.0152393
0.0174026
0.0192958
0.0212673
0.0229203
0.0245495
0.0258413
0.0270159
0.0278627
0.0285156
0.0288758
0.0289871
0.0288618
0.0284569
0.0278861
0.0270291
0.0260847
0.0249131
0.0237505
0.0225824
0.0217535
0.0208147
0.0203534
0.0193324
0.0186265
0.0169968
0.0154486
0.0130735
0.0106174
0.00799058
0.00530177
0.0032974
0.00138713
0.000810003
0.000537512
0.00158722
0.00302095
0.00476186
0.00648242
0.00749313
0.00788931
0.00806052
0.000179111
0.000209397
0.000461393
0.000880226
0.00226381
0.00405405
0.00756804
0.0112845
0.0163382
0.021325
0.0264514
0.0314179
0.035317
0.0391054
0.0409677
0.0429101
0.042751
0.0429652
0.0416927
0.0410219
0.0397786
0.0391995
0.0387501
0.0385602
0.0385507
0.0382077
0.0377077
0.0367695
0.0356849
0.0341096
0.0324965
0.0303759
0.0283373
0.0258128
0.0234911
0.0207429
0.0183091
0.0155419
0.0131805
0.0106052
0.00849814
0.00631282
0.00462203
0.00299268
0.00184461
0.000889181
0.000362682
0.000139487
0.00025836
0.000760925
0.00149255
0.0026514
0.00391111
0.005602
0.00726294
0.00932063
0.0112271
0.0134626
0.0154455
0.0176644
0.019557
0.0215776
0.0232301
0.0248982
0.0261896
0.0273902
0.0282368
0.0289019
0.029262
0.0293718
0.0292465
0.0288276
0.028257
0.0273754
0.0264312
0.0252249
0.0240627
0.0228421
0.0220123
0.0209904
0.0205273
0.0193907
0.0186837
0.0169289
0.0153816
0.0129173
0.0104636
0.00782524
0.005139
0.00320861
0.00129944
0.0008494
0.000575405
0.00174462
0.00317463
0.00497415
0.00669069
0.00769789
0.00809289
0.00825086
0.000204907
0.000225015
0.000480448
0.000876255
0.00217737
0.00390294
0.00727125
0.0109266
0.0158837
0.0208538
0.0259426
0.0309767
0.0349276
0.0388493
0.0408541
0.0429558
0.0429442
0.0433203
0.0421341
0.0416005
0.0403865
0.0398883
0.0394662
0.0392908
0.0393355
0.0389856
0.0384651
0.037507
0.0363962
0.0347899
0.033141
0.0309802
0.0288981
0.0263266
0.0239567
0.0211581
0.0186746
0.0158569
0.0134481
0.0108263
0.00867732
0.00645292
0.00472896
0.00307098
0.00190083
0.000929286
0.000393236
0.000167405
0.000289567
0.000802698
0.00154965
0.00273075
0.00401591
0.00573825
0.00743201
0.00952709
0.0114705
0.0137456
0.015766
0.0180233
0.0199508
0.0220052
0.0236871
0.0253818
0.0266951
0.0279137
0.0287735
0.0294469
0.0298111
0.0299198
0.0297899
0.0293612
0.0287783
0.0278797
0.0269197
0.0256895
0.0244707
0.0232074
0.0223393
0.0212347
0.0207254
0.0194842
0.0187035
0.0168522
0.01523
0.0127012
0.0102305
0.00757956
0.00495586
0.00307786
0.00126643
0.000910975
0.00073665
0.00200294
0.00346635
0.00533092
0.00699977
0.00802417
0.00839205
0.00854378
0.000243509
0.000263654
0.000502314
0.00089839
0.0020816
0.00380562
0.00684823
0.0104934
0.0151454
0.0200975
0.0251259
0.0301414
0.0343194
0.0382283
0.040694
0.0427933
0.0433493
0.0437333
0.0430398
0.0425184
0.0416098
0.0411205
0.0407589
0.0405852
0.0405576
0.0402079
0.0396251
0.0386673
0.0374766
0.0358709
0.0341127
0.0319526
0.0297382
0.0271676
0.0246509
0.0218531
0.0192185
0.0164018
0.0138482
0.0112272
0.00895065
0.00672696
0.0049019
0.00324446
0.00200699
0.00103576
0.000470573
0.000244814
0.00037699
0.000889955
0.00168356
0.00286428
0.00422697
0.00594875
0.00774256
0.00983696
0.0118929
0.0141673
0.0163021
0.0185587
0.0205925
0.0226462
0.0244177
0.0261119
0.0274918
0.02871
0.0296099
0.0302831
0.0306597
0.0307684
0.0306245
0.0301959
0.0295754
0.0286772
0.0276686
0.0264388
0.0251688
0.0239049
0.0228842
0.021776
0.020974
0.0197295
0.0186074
0.0167573
0.0148782
0.012356
0.00983453
0.00719158
0.00474146
0.00286775
0.00137743
0.00101828
0.00113795
0.00239261
0.00391873
0.00577186
0.00736296
0.00838247
0.00880489
0.00895611
0.000284641
0.000304826
0.000468202
0.000864964
0.001911
0.00363478
0.00639144
0.0100257
0.0143481
0.0192808
0.024244
0.0292395
0.0336626
0.0375577
0.0405212
0.0426179
0.0437867
0.0441792
0.0440178
0.0435095
0.0429307
0.0424511
0.0421549
0.041983
0.0418773
0.0415277
0.0408776
0.0399202
0.0386433
0.0370381
0.0351619
0.0330026
0.0306454
0.0280757
0.0254005
0.0226037
0.0198058
0.0169901
0.0142802
0.0116602
0.0092458
0.00702288
0.00508865
0.00343178
0.00212163
0.00115074
0.000554084
0.000328403
0.000471392
0.00098418
0.00182816
0.00300847
0.00445488
0.00617606
0.0080779
0.0101716
0.012349
0.0146226
0.016881
0.0191368
0.0212853
0.0233383
0.0252066
0.0269002
0.0283521
0.0295699
0.0305131
0.0311861
0.0315761
0.0316848
0.0315257
0.0310973
0.0304362
0.0295382
0.0284773
0.027248
0.0259225
0.0246582
0.0234727
0.0223605
0.0212424
0.0199944
0.0185036
0.0166548
0.0144984
0.0119832
0.00940691
0.00677263
0.00450995
0.00264086
0.00149729
0.00113416
0.00157129
0.00281339
0.00441591
0.00625687
0.00786986
0.0088849
0.00925486
0.00940554
0.000320164
0.00034038
0.000326282
0.000721107
0.00134166
0.00305041
0.00544779
0.00905601
0.0133155
0.0182217
0.0234022
0.0283791
0.0332953
0.0371844
0.0407513
0.0428553
0.0445473
0.0449552
0.0451494
0.0446564
0.0442744
0.0438045
0.0436277
0.0434577
0.0434242
0.0430747
0.0423849
0.0414278
0.0400428
0.0384382
0.0364074
0.0342488
0.0316997
0.0291309
0.0262394
0.0234436
0.0204206
0.0176059
0.0146792
0.0120601
0.00945402
0.00723194
0.00514634
0.00349009
0.00208071
0.00111019
0.000473504
0.000247908
0.000411639
0.000924234
0.00184557
0.00302544
0.00459649
0.00631702
0.00837733
0.0104702
0.012824
0.0150968
0.0175328
0.0197877
0.0220995
0.0241517
0.0261559
0.0278488
0.0293998
0.0306172
0.0316171
0.0322898
0.0326932
0.0328018
0.0326151
0.0321869
0.0314629
0.0305652
0.0294045
0.0281757
0.0267037
0.0254389
0.0240805
0.0229643
0.0216121
0.020359
0.0185512
0.0167004
0.0141986
0.0116883
0.00886768
0.00624472
0.00397869
0.00212241
0.00123041
0.0008754
0.00170565
0.00294438
0.00500547
0.00683135
0.00863291
0.00963775
0.00980798
0.009958
0.000360582
0.00038065
0.000233104
0.000602153
0.000741897
0.00245763
0.00442553
0.00800467
0.0121848
0.0170621
0.0225015
0.0274586
0.03292
0.0368031
0.0410416
0.043154
0.0454151
0.0458398
0.0463869
0.0459105
0.0457061
0.0452467
0.0452116
0.0450437
0.0451012
0.0447519
0.0440209
0.0430642
0.0415615
0.0399576
0.0377582
0.0356006
0.0328421
0.0302744
0.0271468
0.0243522
0.0210834
0.0182699
0.0151063
0.0124883
0.00967292
0.00745174
0.0052009
0.00354533
0.00202768
0.00105754
0.000377315
0.00015181
0.000338426
0.000850813
0.00185692
0.00303631
0.00474379
0.00646362
0.0086973
0.0107893
0.013336
0.0156079
0.018238
0.0204921
0.0229823
0.0250337
0.0271862
0.0288785
0.0305375
0.0317544
0.0328162
0.0334886
0.0339064
0.0340149
0.0337979
0.0333698
0.0325767
0.0316794
0.0304087
0.0291803
0.0275412
0.0262758
0.0247305
0.02361
0.0220276
0.020769
0.0186279
0.0167749
0.0138858
0.0113808
0.00828061
0.00566999
0.00338385
0.00154177
0.000906568
0.000560858
0.00184768
0.00308347
0.00563297
0.00745325
0.0094021
0.0104057
0.0104053
0.0105538
0.000534874
0.000515418
0.000368644
0.000549043
0.000687454
0.00202201
0.00393298
0.00713328
0.011258
0.0159202
0.0213618
0.0263857
0.0318805
0.0361217
0.0404357
0.0430943
0.0454448
0.046428
0.0470386
0.0469811
0.0468137
0.0465771
0.0465609
0.0464553
0.0464899
0.0461117
0.0453778
0.0443451
0.0428339
0.0411193
0.0389077
0.0366107
0.0338371
0.0311099
0.0279653
0.025002
0.0217154
0.0187358
0.0155552
0.0127863
0.00995572
0.00761032
0.00534755
0.00360402
0.00207857
0.00106313
0.000379793
0.000154068
0.000342392
0.00089772
0.00191001
0.00316943
0.00488681
0.00671414
0.00896039
0.0111755
0.0137361
0.0161337
0.0187779
0.0211482
0.0236513
0.0257991
0.0279624
0.0297239
0.0313906
0.0326456
0.0337118
0.0343904
0.0348091
0.0348942
0.0346749
0.0341983
0.0334001
0.0324349
0.0311561
0.0298387
0.0282106
0.0268141
0.0252439
0.0239
0.0222767
0.0207158
0.0185228
0.0163888
0.0134499
0.0108202
0.00770098
0.00520004
0.00292337
0.00139035
0.000786384
0.000820155
0.00216805
0.00369487
0.00626176
0.00818569
0.0101192
0.011058
0.011054
0.0111462
0.000723082
0.000660945
0.000515006
0.000491693
0.000628664
0.0015516
0.00345005
0.00619388
0.0102946
0.0146985
0.0201117
0.0252202
0.0306902
0.035366
0.0396657
0.0429836
0.0453333
0.0469918
0.0476115
0.0480679
0.0479117
0.0479552
0.0479446
0.0479195
0.0479542
0.0475424
0.0468088
0.0456876
0.0441771
0.0423336
0.040123
0.0376638
0.0348915
0.0319788
0.0288357
0.0256758
0.0223909
0.019218
0.0160388
0.0130942
0.010265
0.00777496
0.00551327
0.00366731
0.00214259
0.0010744
0.000391379
0.00016539
0.000353624
0.000958953
0.00197076
0.00332334
0.00503991
0.0069924
0.00923758
0.0115959
0.0141553
0.0166994
0.0193423
0.021848
0.0243499
0.0266101
0.0287723
0.0306145
0.0322805
0.0335798
0.0346454
0.0353313
0.0357498
0.0358076
0.0355884
0.0350552
0.0342574
0.0332131
0.031935
0.030514
0.0288866
0.027321
0.0257495
0.0241221
0.022497
0.0205635
0.0183726
0.015898
0.0129674
0.0101861
0.00707906
0.00470864
0.00244215
0.00128207
0.000680344
0.00117628
0.002515
0.00439202
0.00694075
0.00897662
0.0108936
0.0117623
0.0117544
0.0117859
0.000926316
0.00081809
0.000673054
0.000429765
0.000565181
0.00104364
0.00292857
0.00517947
0.00925428
0.0133793
0.0187618
0.0239616
0.0294048
0.0345499
0.0388341
0.0428641
0.0452128
0.0476005
0.0482301
0.0492415
0.0490973
0.0494434
0.0494387
0.0495006
0.0495353
0.0490873
0.0483541
0.0471372
0.0456275
0.0436448
0.0414354
0.038801
0.0360301
0.032917
0.0297755
0.0264035
0.0231202
0.0197386
0.0165611
0.0134267
0.0105989
0.00795275
0.00569221
0.00373566
0.00221172
0.00108656
0.00040389
0.000177616
0.000365753
0.00102507
0.00203637
0.00348955
0.00520524
0.00729286
0.00953689
0.0120499
0.014608
0.0173102
0.0199518
0.0226037
0.0251043
0.0274858
0.0296469
0.0315763
0.0332413
0.0345885
0.0356537
0.0363473
0.0367656
0.036794
0.0365749
0.0359806
0.0351832
0.0340536
0.0327761
0.0312431
0.0296166
0.0278685
0.0262955
0.0243619
0.0227348
0.0203991
0.0182104
0.015368
0.0124464
0.00950133
0.00640748
0.004178
0.00192251
0.00116514
0.000565839
0.00156085
0.00288964
0.00514483
0.00767395
0.00983069
0.0117299
0.0125229
0.0125107
0.0124767
0.00122866
0.00110564
0.000973707
0.000682292
0.000731479
0.0010425
0.00257864
0.00461934
0.00821863
0.0122115
0.0172395
0.0224562
0.0277968
0.0331151
0.0376244
0.0419339
0.0447836
0.0474704
0.0486655
0.0499181
0.0501883
0.0506745
0.0507954
0.0508991
0.0508528
0.0503908
0.0496026
0.0483488
0.0467796
0.0447433
0.0424638
0.039762
0.0369144
0.0337242
0.0305037
0.0270502
0.0236906
0.0202287
0.0169826
0.0137753
0.0108913
0.00818506
0.00588446
0.00388545
0.00234023
0.00119323
0.000509017
0.000282712
0.000487969
0.00116814
0.00221225
0.00370416
0.00546365
0.00760327
0.00989623
0.0124687
0.0150746
0.0178376
0.0205199
0.0232279
0.0257576
0.0281856
0.0303612
0.0323239
0.033988
0.0353534
0.036403
0.0370995
0.0374904
0.0375072
0.0372521
0.0366342
0.0357959
0.0346334
0.0333156
0.0317395
0.0300921
0.0282596
0.0265363
0.0244639
0.0225637
0.020058
0.0176304
0.0146425
0.0116846
0.00868177
0.00581347
0.00364871
0.00177605
0.00118511
0.000965083
0.00215916
0.0036967
0.00609012
0.00851874
0.0106898
0.0123919
0.0131436
0.0132815
0.013226
0.00162139
0.00149887
0.0013229
0.00103608
0.000789728
0.00110488
0.0020768
0.00410584
0.00699791
0.0109601
0.0154849
0.020661
0.0259699
0.0312487
0.0362348
0.0405173
0.0442133
0.0468917
0.0490103
0.050268
0.0512227
0.0517163
0.052083
0.0521882
0.0521106
0.0516488
0.0507737
0.0495207
0.0478421
0.045807
0.0433939
0.0406937
0.0376956
0.0345073
0.0311286
0.0276771
0.0241619
0.0207021
0.0173137
0.0141083
0.0111058
0.0084012
0.00601468
0.00401687
0.0024246
0.00127829
0.000588534
0.000362364
0.000602078
0.00128184
0.00239464
0.00388566
0.00573858
0.00787693
0.010276
0.012847
0.0155587
0.01832
0.0210954
0.0238017
0.0264017
0.0288283
0.0310447
0.0330062
0.0346791
0.0360437
0.0370714
0.0377675
0.0381102
0.038127
0.0378042
0.0371866
0.0362684
0.0351065
0.0337055
0.0321303
0.0303666
0.0285348
0.0265238
0.0244525
0.0220834
0.0195837
0.0167385
0.0137654
0.0106909
0.00770733
0.00512935
0.00297883
0.00171912
0.00112907
0.00159478
0.00277264
0.00474524
0.00710954
0.0096131
0.011758
0.013372
0.0141132
0.0140799
0.0140235
0.00211811
0.00199624
0.00174962
0.00144313
0.000571068
0.000869626
0.00091349
0.00292421
0.00513608
0.00904901
0.0133553
0.0184813
0.0241234
0.0293618
0.035175
0.0394381
0.0441315
0.0468101
0.0497469
0.0510144
0.0524719
0.0529743
0.0535965
0.0537036
0.0536955
0.0532339
0.052285
0.0510326
0.0492108
0.0471768
0.0445747
0.0418761
0.0386542
0.0354679
0.0318451
0.0283957
0.0246332
0.0211755
0.0175554
0.014352
0.011152
0.00844914
0.00591597
0.00391944
0.00224357
0.00109804
0.000393976
0.000168027
0.00046178
0.00114119
0.00236802
0.0038582
0.00587033
0.0080074
0.0105914
0.0131608
0.0160616
0.0188212
0.0217691
0.0244737
0.0272122
0.0296371
0.031946
0.0339061
0.0356193
0.0369829
0.0379991
0.0386945
0.0389796
0.0389962
0.0385791
0.0379618
0.0369244
0.0357631
0.0342265
0.0326522
0.0307203
0.0288892
0.0266079
0.0245369
0.0217406
0.0192454
0.0158917
0.0129324
0.00948929
0.00652946
0.00398786
0.0018601
0.00109022
0.000515849
0.00174615
0.00292176
0.00569599
0.00803225
0.0110523
0.013176
0.0147051
0.0154148
0.0149126
0.0148488
0.00274012
0.00261502
0.00237198
0.00190473
0.00104219
0.000827507
0.000869964
0.00208745
0.00425665
0.00740296
0.0116645
0.0163243
0.0219207
0.0271843
0.0329717
0.0377573
0.0424629
0.0459497
0.0489121
0.0509436
0.0524238
0.0533871
0.0540031
0.0542379
0.054174
0.0536767
0.0527284
0.0514048
0.0495843
0.047472
0.0448717
0.0420922
0.0388725
0.0356073
0.031987
0.0284658
0.0247059
0.0211883
0.0175708
0.0143242
0.0111264
0.00840065
0.00586925
0.0038723
0.0021976
0.00107398
0.000370401
0.000185778
0.000479326
0.0012138
0.00243977
0.00399068
0.0060014
0.00819538
0.0107776
0.0133905
0.0162892
0.0190706
0.0220164
0.0247156
0.0274522
0.0298424
0.0321496
0.0340479
0.0357598
0.0370399
0.0380554
0.0386538
0.0389386
0.0388544
0.0384376
0.0377249
0.0366883
0.0354452
0.0339097
0.0322558
0.0303627
0.0283843
0.0261051
0.0237484
0.0209378
0.0181345
0.0147729
0.0117225
0.00828995
0.00562151
0.00310429
0.00161348
0.000857234
0.00103929
0.00227037
0.00404615
0.00680867
0.00938812
0.0123723
0.0143732
0.015877
0.016333
0.0158258
0.0156411
0.00341179
0.00328321
0.00304454
0.00240319
0.00155093
0.000782025
0.000822963
0.00118389
0.00332951
0.00562834
0.0098476
0.013995
0.0195401
0.024833
0.030572
0.035934
0.0406059
0.0449808
0.0479281
0.0508015
0.0522794
0.0537557
0.0543727
0.0547545
0.0546906
0.0541549
0.0532073
0.0518068
0.0499876
0.0477908
0.0451925
0.0423255
0.0391083
0.0357579
0.0321403
0.0285415
0.0247845
0.0212022
0.0175874
0.0142941
0.0110988
0.00834829
0.00581879
0.0038214
0.00214796
0.00104799
0.000344943
0.000204946
0.000498273
0.0012922
0.00251725
0.00413373
0.00614294
0.00839837
0.0109787
0.0136385
0.016535
0.0193399
0.0222835
0.0249767
0.0277113
0.030064
0.0323695
0.0342009
0.0359116
0.0371014
0.0381161
0.0386098
0.0388944
0.0387013
0.0382848
0.0374692
0.0364333
0.035102
0.0335675
0.0318278
0.0299361
0.0277888
0.0255137
0.0228388
0.0200386
0.016897
0.0135543
0.0104053
0.0069964
0.00464809
0.00215017
0.00135667
0.000605649
0.0016218
0.00283892
0.00527948
0.00801018
0.0108522
0.0137977
0.015666
0.0171423
0.0173176
0.016812
0.0164966
0.00422482
0.00409636
0.00380158
0.00315855
0.00234728
0.00149756
0.00119338
0.00138611
0.00269585
0.00480469
0.0080578
0.0120658
0.0168378
0.0220903
0.0275099
0.0329408
0.0378909
0.0424085
0.0460505
0.0490779
0.0512323
0.0528125
0.053722
0.0541391
0.0540327
0.05349
0.0525166
0.0511022
0.0492885
0.047077
0.0445223
0.0416404
0.0385025
0.035138
0.0316295
0.0280182
0.0243917
0.0207995
0.0173265
0.0140264
0.0109728
0.00821941
0.00581993
0.0038238
0.00225784
0.00116313
0.000535609
0.000404266
0.000733912
0.00153872
0.00275638
0.00438435
0.00634102
0.00860672
0.0110912
0.0137582
0.0165209
0.0193284
0.0221084
0.0247987
0.0273508
0.0296948
0.0318116
0.0336289
0.0351582
0.0363299
0.0371834
0.0376566
0.0378114
0.0375974
0.0370906
0.0362558
0.0351738
0.0338265
0.0322782
0.0305231
0.0286272
0.0264417
0.0240306
0.0212971
0.0183489
0.0151577
0.0119372
0.00879283
0.00594907
0.00368242
0.00204627
0.00139519
0.00147796
0.00264747
0.00438375
0.00692919
0.00965459
0.0125113
0.0149692
0.0167719
0.0178486
0.0179832
0.0177711
0.0174361
0.00524406
0.00511685
0.00502906
0.00439402
0.00305433
0.00222647
0.000856461
0.00103935
0.00112906
0.00319538
0.00536079
0.00930367
0.0134919
0.01867
0.0242495
0.0296142
0.0353458
0.0398196
0.0444451
0.0474517
0.0503716
0.051945
0.0531575
0.0535735
0.0534593
0.0529171
0.051884
0.0504709
0.0486199
0.0464103
0.0438375
0.0409582
0.0378226
0.034461
0.0309751
0.0273669
0.023782
0.020193
0.0167788
0.0134816
0.0105016
0.00775063
0.00543601
0.00344164
0.00196686
0.000873121
0.000336363
0.000205136
0.000616507
0.00142061
0.00270092
0.00432745
0.00631734
0.00858104
0.01106
0.0137247
0.0164369
0.0192419
0.0219244
0.0246123
0.027023
0.029365
0.0313056
0.0331213
0.0344529
0.0356235
0.0362742
0.036747
0.0367116
0.0364978
0.0358295
0.0349954
0.0337937
0.0324475
0.0308413
0.0290878
0.0271749
0.0249931
0.0224204
0.0197002
0.0164397
0.0132737
0.00990461
0.00679546
0.00426739
0.00203529
0.00126826
0.000635213
0.00188987
0.00305114
0.0058444
0.00835353
0.0117149
0.0145147
0.0170526
0.0188252
0.0194043
0.0195173
0.0184603
0.0181248
0.00634492
0.00628556
0.00620512
0.00558187
0.00426047
0.00306419
0.00164584
0.00100229
0.000980021
0.00190295
0.00396495
0.00676292
0.0108607
0.0152351
0.0207598
0.0259005
0.0316396
0.0364464
0.0411149
0.0446986
0.0476593
0.0496571
0.0508614
0.051401
0.051221
0.0506847
0.049649
0.0482819
0.04643
0.0443362
0.041764
0.039065
0.0359313
0.0328038
0.0293211
0.0259858
0.0224052
0.0191093
0.0157002
0.0126961
0.00972182
0.00724294
0.00493435
0.00317116
0.00170237
0.000781467
0.000250221
0.000219787
0.000635728
0.00145973
0.00274312
0.00430554
0.00629649
0.008415
0.0108926
0.0133401
0.0160482
0.0185789
0.0212546
0.0236304
0.026032
0.0280467
0.0299763
0.0314738
0.0327934
0.0336778
0.0343166
0.0345558
0.0345094
0.0341302
0.0334529
0.0325312
0.0313233
0.0299705
0.0283621
0.0266654
0.0247878
0.0226585
0.020093
0.0174074
0.0141366
0.0111831
0.00782311
0.00532273
0.00284453
0.00160624
0.000916409
0.00139086
0.0027078
0.00473253
0.00756336
0.01043
0.013785
0.0163855
0.0188555
0.0200962
0.0206326
0.0202784
0.0192171
0.0187187
0.00755287
0.00754214
0.00739308
0.00679213
0.00559437
0.0041438
0.00274037
0.00144631
0.00116731
0.00117317
0.00278195
0.00465737
0.00820549
0.0119252
0.0169348
0.0218758
0.0273019