/*--------------------------------*- C++ -*----------------------------------*\
| =========                 |                                                 |
| \\      /  F ield         | OpenFOAM: The Open Source CFD Toolbox           |
|  \\    /   O peration     | Version:  v2106                                 |
|   \\  /    A nd           | Website:  www.openfoam.com                      |
|    \\/     M anipulation  |                                                 |
\*---------------------------------------------------------------------------*/
FoamFile
{
    version     2.0;
    format      ascii;
    arch        "LSB;label=32;scalar=64";
    class       volScalarField;
    location    "0";
    object      expGpCoeffs46;
}
// * * * * * * * * * * * * * * * * * * * * * * * * * * * * * * * * * * * * * //

dimensions      [0 0 0 0 0 0 0];

internalField   nonuniform List<scalar> 
8000
(
0.00233814
0.00246037
0.00261998
0.00277129
0.00275731
0.00257266
0.00220177
0.00167769
0.00116877
0.000685668
0.000344138
0.000145647
2.44821e-05
-2.98729e-05
-0.000130744
-0.000284131
-0.000512484
-0.000814642
-0.00113738
-0.0014792
-0.00180755
-0.00212017
-0.00242496
-0.00271915
-0.00300519
-0.00328184
-0.00353319
-0.00375753
-0.00393704
-0.0040703
-0.00414398
-0.00415716
-0.00410414
-0.00398483
-0.00380356
-0.00356121
-0.0032724
-0.00293887
-0.00258313
-0.00220745
-0.0018375
-0.00147558
-0.00114452
-0.00084605
-0.000594321
-0.000390115
-0.000234959
-0.000128433
-5.87317e-05
-2.43439e-05
-3.12128e-06
7.12393e-06
3.27392e-05
7.59536e-05
0.00015963
0.000285357
0.000465532
0.000700578
0.000988287
0.00132775
0.00170222
0.00210962
0.00252289
0.00293935
0.00332868
0.00368826
0.00399211
0.00423831
0.00441115
0.00450982
0.0045316
0.00447683
0.00435492
0.00416717
0.0039325
0.00365291
0.00335042
0.00302742
0.00268713
0.00233285
0.00195456
0.00155482
0.0011628
0.000780052
0.000472025
0.000240464
9.18776e-05
2.29425e-05
-6.11094e-05
-0.000170535
-0.00039506
-0.000737063
-0.00113683
-0.00158927
-0.00194446
-0.00217372
-0.00225692
-0.00219021
-0.00209453
-0.00201033
0.0023283
0.0024505
0.00262737
0.00277877
0.00277671
0.00259258
0.00221
0.00168596
0.00115833
0.000674705
0.00033267
0.000133791
2.4743e-05
-2.96212e-05
-0.000122957
-0.000276198
-0.000508135
-0.00081025
-0.00113828
-0.00148011
-0.00180884
-0.00212143
-0.00242513
-0.00271928
-0.00300647
-0.00328309
-0.00353616
-0.00376047
-0.00394144
-0.00407468
-0.00414927
-0.00416246
-0.00410952
-0.00399023
-0.00380808
-0.00356576
-0.0032752
-0.00294171
-0.00258369
-0.00220805
-0.00183579
-0.00147392
-0.00114107
-0.00084264
-0.000590132
-0.000385953
-0.000231248
-0.000124735
-5.66145e-05
-2.2231e-05
-3.28808e-06
6.95583e-06
3.02497e-05
7.34587e-05
0.000155474
0.000281185
0.000460893
0.000695909
0.00098454
0.00132396
0.00170054
0.00210788
0.00252389
0.00294031
0.00333231
0.00369184
0.00399767
0.00424383
0.00441752
0.00451618
0.00453761
0.00448285
0.00435963
0.0041719
0.00393518
0.00365562
0.0033512
0.00302824
0.00268877
0.00233451
0.00195639
0.00155662
0.00115929
0.000776549
0.000462948
0.000231539
8.75415e-05
1.8696e-05
-5.35791e-05
-0.000163246
-0.000383881
-0.000726357
-0.0011395
-0.00159205
-0.00196046
-0.00218933
-0.00226513
-0.00219831
-0.00208773
-0.00200355
0.00231767
0.00243984
0.00263535
0.00278686
0.00279767
0.00261409
0.00221888
0.00169489
0.00114705
0.000662866
0.000320286
0.000120988
2.50247e-05
-2.93495e-05
-0.000114548
-0.000267632
-0.000503439
-0.000805508
-0.00113925
-0.0014811
-0.00181022
-0.0021228
-0.00242531
-0.00271942
-0.00300785
-0.00328443
-0.00353937
-0.00376365
-0.00394618
-0.00407941
-0.004155
-0.00416818
-0.00411534
-0.00399606
-0.00381296
-0.00357067
-0.00327823
-0.00294478
-0.00258429
-0.0022087
-0.00183394
-0.00147212
-0.00113735
-0.000838959
-0.00058561
-0.000381458
-0.00022724
-0.000120742
-5.43282e-05
-1.99495e-05
-3.46818e-06
6.77431e-06
2.75616e-05
7.07645e-05
0.000150986
0.00027668
0.000455883
0.000690866
0.000980494
0.00131986
0.00169872
0.002106
0.00252498
0.00294134
0.00333624
0.00369572
0.00400366
0.00424979
0.0044244
0.00452304
0.0045441
0.00448934
0.0043647
0.004177
0.00393807
0.00365855
0.00335204
0.00302913
0.00269054
0.00233631
0.00195836
0.00155857
0.00115549
0.000772767
0.000453145
0.000221902
8.28593e-05
1.41105e-05
-4.54475e-05
-0.000155375
-0.000371808
-0.000714796
-0.00114239
-0.00159505
-0.00197773
-0.00220618
-0.00227399
-0.00220706
-0.00208039
-0.00199623
0.00230619
0.00242834
0.00264397
0.00279559
0.0028203
0.00263732
0.00222846
0.00170453
0.00113487
0.000650083
0.000306913
0.000107163
2.5329e-05
-2.9056e-05
-0.000105468
-0.000258383
-0.000498367
-0.000800387
-0.0011403
-0.00148216
-0.00181172
-0.00212427
-0.00242551
-0.00271957
-0.00300934
-0.00328588
-0.00354283
-0.00376708
-0.00395131
-0.00408452
-0.00416117
-0.00417436
-0.00412161
-0.00400235
-0.00381823
-0.00357598
-0.00328149
-0.0029481
-0.00258494
-0.0022094
-0.00183194
-0.00147017
-0.00113333
-0.000834983
-0.000580726
-0.000376605
-0.000222913
-0.000116431
-5.18594e-05
-1.74858e-05
-3.66267e-06
6.57829e-06
2.46588e-05
6.78553e-05
0.00014614
0.000271815
0.000450473
0.000685421
0.000976125
0.00131544
0.00169675
0.00210398
0.00252616
0.00294245
0.00334047
0.0036999
0.00401014
0.00425623
0.00443183
0.00453045
0.00455111
0.00449636
0.00437019
0.00418251
0.00394119
0.00366171
0.00335295
0.00303008
0.00269245
0.00233824
0.00196049
0.00156067
0.00115139
0.000768682
0.000442561
0.000211495
7.78032e-05
9.15888e-06
-3.66667e-05
-0.000146875
-0.000358772
-0.000702311
-0.00114551
-0.00159829
-0.00199639
-0.00222438
-0.00228356
-0.0022165
-0.00207246
-0.00198833
0.0022938
0.00241591
0.00265328
0.00280322
0.00284474
0.00266241
0.00223882
0.00171495
0.00112173
0.000636278
0.000292472
9.22334e-05
2.56575e-05
-2.87392e-05
-9.56624e-05
-0.000248394
-0.000492891
-0.000794857
-0.00114143
-0.00148331
-0.00181334
-0.00212586
-0.00242571
-0.00271974
-0.00301095
-0.00328745
-0.00354658
-0.00377079
-0.00395685
-0.00409004
-0.00416785
-0.00418103
-0.00412839
-0.00400915
-0.00382392
-0.00358171
-0.00328502
-0.00295167
-0.00258564
-0.00221016
-0.00182979
-0.00146807
-0.00112899
-0.000830689
-0.000575452
-0.000371364
-0.00021824
-0.000111775
-4.91935e-05
-1.48255e-05
-3.87269e-06
6.36663e-06
2.15242e-05
6.47138e-05
0.000140906
0.000266562
0.000444631
0.000679541
0.000971407
0.00131067
0.00169463
0.00210179
0.00252742
0.00294365
0.00334505
0.00370441
0.00401713
0.00426318
0.00443985
0.00453846
0.00455868
0.00450394
0.00437611
0.00418846
0.00394456
0.00366513
0.00335393
0.00303112
0.00269451
0.00234033
0.0019628
0.00156294
0.00114696
0.000764271
0.000431131
0.000200258
7.23435e-05
3.81191e-06
-2.71848e-05
-0.000137697
-0.000344695
-0.00068883
-0.00114887
-0.00160178
-0.00201653
-0.00224404
-0.00229266
-0.0022267
-0.0020639
-0.00197979
0.00228044
0.00240297
0.00264494
0.00280034
0.00286031
0.00268165
0.0022506
0.00173131
0.00110826
0.000623701
0.000278448
7.84744e-05
2.65578e-05
-2.81068e-05
-8.52197e-05
-0.000237675
-0.000486978
-0.000788886
-0.00114266
-0.00148455
-0.00181508
-0.00212758
-0.00242594
-0.00271991
-0.0030115
-0.00328827
-0.0035495
-0.00377404
-0.00396186
-0.00409542
-0.00417434
-0.00418788
-0.00413535
-0.00401638
-0.00383009
-0.00358804
-0.00328922
-0.00295592
-0.0025871
-0.00221156
-0.00182837
-0.00146652
-0.00112527
-0.000826817
-0.000570635
-0.000366423
-0.000213851
-0.000107311
-4.66548e-05
-1.22575e-05
-4.0809e-06
6.16379e-06
1.84948e-05
6.16977e-05
0.000135867
0.000261564
0.000439062
0.000674047
0.000967032
0.00130638
0.00169289
0.0021001
0.00252907
0.00294528
0.00334993
0.00370918
0.00402428
0.00427012
0.00444782
0.00454615
0.00456595
0.0045109
0.00438147
0.00419356
0.00394717
0.0036675
0.00335499
0.00303223
0.00269673
0.00234259
0.00196528
0.00156539
0.00114217
0.000759509
0.000418796
0.000188281
6.67323e-05
-1.93602e-06
-1.83681e-05
-0.000128847
-0.000331411
-0.000674934
-0.00115852
-0.00160721
-0.00203533
-0.00225825
-0.00229485
-0.00222274
-0.00205544
-0.00197069
0.00226604
0.00238995
0.00263181
0.00279724
0.00285715
0.00269902
0.00226828
0.00176316
0.00114076
0.000649961
0.000305304
8.879e-05
3.71276e-05
-2.51868e-05
-8.22499e-05
-0.000228926
-0.000478212
-0.000773142
-0.00112734
-0.00147005
-0.00179981
-0.00211663
-0.00241333
-0.00271074
-0.00300113
-0.00328112
-0.00354231
-0.00377053
-0.00395832
-0.00409589
-0.0041748
-0.004192
-0.00413949
-0.00402322
-0.00383695
-0.00359622
-0.00329746
-0.00296401
-0.00259526
-0.00221838
-0.00183526
-0.00147141
-0.00113022
-0.000829701
-0.000573567
-0.00036773
-0.000215186
-0.000107698
-4.70534e-05
-1.23087e-05
-4.13363e-06
6.18238e-06
1.85111e-05
6.19207e-05
0.000136076
0.000262423
0.000439887
0.000676019
0.000968949
0.0013097
0.00169614
0.00210455
0.00253343
0.00295012
0.00335469
0.00371333
0.00402837
0.0042724
0.00445007
0.00454564
0.00456543
0.00450718
0.00437777
0.00418678
0.00394044
0.00365786
0.00334658
0.00301994
0.00268609
0.0023261
0.0019498
0.00154677
0.00112323
0.000746684
0.000405824
0.00018434
6.28399e-05
-7.69117e-06
-2.39795e-05
-0.000147701
-0.000349826
-0.000702575
-0.00118557
-0.0016266
-0.00205436
-0.00226066
-0.00229722
-0.00221511
-0.00204787
-0.00196112
0.0022505
0.00237589
0.00261764
0.00279389
0.00285374
0.00271777
0.00228738
0.00179755
0.00117587
0.000678318
0.000334304
9.99291e-05
4.85413e-05
-2.20336e-05
-7.90429e-05
-0.000219479
-0.000468636
-0.000754957
-0.00110889
-0.00145058
-0.0017801
-0.00210133
-0.00239791
-0.0026996
-0.00298994
-0.0032734
-0.00353453
-0.00376674
-0.00395449
-0.0040964
-0.0041753
-0.00419646
-0.00414396
-0.0040306
-0.00384437
-0.00360506
-0.00330636
-0.00297275
-0.00260407
-0.00222575
-0.0018427
-0.00147668
-0.00113556
-0.000832815
-0.000576733
-0.000369141
-0.000216628
-0.000108116
-4.74839e-05
-1.2364e-05
-4.19058e-06
6.20246e-06
1.85287e-05
6.21615e-05
0.000136302
0.00026335
0.000440778
0.000678148
0.000971019
0.00131328
0.00169964
0.00210935
0.00253814
0.00295534
0.00335983
0.0037178
0.00403278
0.00427487
0.0044525
0.00454509
0.00456488
0.00450315
0.00437377
0.00417947
0.00393317
0.00364744
0.00333623
0.00300479
0.00267106
0.00230475
0.0019287
0.00152422
0.00110101
0.000732475
0.000391816
0.000180085
5.86366e-05
-1.39058e-05
-3.0039e-05
-0.00016806
-0.000369711
-0.000732423
-0.00121479
-0.00164754
-0.0020749
-0.00226326
-0.00229977
-0.00220686
-0.0020397
-0.00195079
0.00223371
0.00236071
0.00260233
0.00279027
0.00285005
0.00273803
0.002308
0.00183469
0.00121377
0.00070894
0.00036562
0.000111958
6.08663e-05
-1.86287e-05
-7.55798e-05
-0.000209278
-0.000458296
-0.000735319
-0.00108896
-0.00142955
-0.00175881
-0.00208481
-0.00238126
-0.00268757
-0.00297784
-0.00326507
-0.00352614
-0.00376265
-0.00395036
-0.00409696
-0.00417584
-0.00420128
-0.00414878
-0.00403857
-0.00385238
-0.0036146
-0.00331597
-0.00298218
-0.00261359
-0.0022337
-0.00185074
-0.00148238
-0.00114133
-0.000836177
-0.000580152
-0.000370664
-0.000218185
-0.000108568
-4.79488e-05
-1.24237e-05
-4.25207e-06
6.22414e-06
1.85476e-05
6.24216e-05
0.000136546
0.00026435
0.00044174
0.000680448
0.000973254
0.00131715
0.00170343
0.00211453
0.00254323
0.00296098
0.00336539
0.00372263
0.00403754
0.00427752
0.00445512
0.0045445
0.00456428
0.00449881
0.00436946
0.00417156
0.00392533
0.0036362
0.00332506
0.00298842
0.00265483
0.00228169
0.00190593
0.00149987
0.00107702
0.000717133
0.000376689
0.00017549
5.40978e-05
-2.06167e-05
-3.65823e-05
-0.000190044
-0.000391183
-0.000764654
-0.00124633
-0.00167015
-0.00209709
-0.00226607
-0.00230253
-0.00219796
-0.00203088
-0.00193964
0.00221558
0.00234432
0.00258581
0.00278636
0.00284607
0.0027599
0.00233026
0.0018748
0.0012547
0.000742006
0.000399436
0.000124947
7.41753e-05
-1.49519e-05
-7.18402e-05
-0.000198262
-0.000447129
-0.000714114
-0.00106744
-0.00140684
-0.00173583
-0.00206697
-0.00236328
-0.00267459
-0.00296478
-0.00325607
-0.00351708
-0.00375824
-0.0039459
-0.00409756
-0.00417641
-0.00420648
-0.00415399
-0.00404717
-0.00386103
-0.0036249
-0.00332634
-0.00299237
-0.00262387
-0.00224229
-0.00185942
-0.00148853
-0.00114757
-0.000839809
-0.000583844
-0.000372309
-0.000219866
-0.000109055
-4.84507e-05
-1.24882e-05
-4.31847e-06
6.24755e-06
1.85681e-05
6.27024e-05
0.000136809
0.000265431
0.000442779
0.000682931
0.000975668
0.00132133
0.00170752
0.00212012
0.00254873
0.00296708
0.00337139
0.00372785
0.00404269
0.0042804
0.00445795
0.00454386
0.00456364
0.00449411
0.00436479
0.00416303
0.00391685
0.00362406
0.00331299
0.00297074
0.0026373
0.0022568
0.00188133
0.00147358
0.00105111
0.000700565
0.000360355
0.000170529
4.91966e-05
-2.78633e-05
-4.3648e-05
-0.000213784
-0.000414371
-0.000799459
-0.0012804
-0.00169457
-0.00212104
-0.0022691
-0.00230551
-0.00218835
-0.00202135
-0.00192759
0.00219601
0.00232662
0.00256796
0.00278214
0.00284178
0.00278352
0.0023543
0.0019181
0.0012989
0.000777712
0.000435952
0.000138973
8.85469e-05
-1.09816e-05
-6.78021e-05
-0.000186367
-0.000435072
-0.000691215
-0.0010442
-0.00138232
-0.00171101
-0.00204771
-0.00234386
-0.00266056
-0.00295068
-0.00324635
-0.0035073
-0.00375347
-0.00394109
-0.0040982
-0.00417704
-0.00421209
-0.00415962
-0.00405646
-0.00387037
-0.00363603
-0.00333754
-0.00300337
-0.00263496
-0.00225156
-0.00186879
-0.00149517
-0.0011543
-0.00084373
-0.000587831
-0.000374086
-0.000221682
-0.000109582
-4.89928e-05
-1.25578e-05
-4.39017e-06
6.27283e-06
1.85903e-05
6.30056e-05
0.000137093
0.000266598
0.0004439
0.000685612
0.000978274
0.00132585
0.00171193
0.00212616
0.00255466
0.00297366
0.00337786
0.00373348
0.00404824
0.0042835
0.004461
0.00454317
0.00456294
0.00448905
0.00435976
0.00415382
0.0039077
0.00361095
0.00329996
0.00295165
0.00261837
0.00222991
0.00185477
0.00144519
0.00102313
0.000682674
0.000342717
0.000165171
4.3904e-05
-3.56885e-05
-5.12779e-05
-0.000239419
-0.000439409
-0.000837042
-0.00131719
-0.00172094
-0.00214691
-0.00227238
-0.00230873
-0.00217797
-0.00201106
-0.00191458
0.00217488
0.0023075
0.00254869
0.00277758
0.00283714
0.00280902
0.00238027
0.00196487
0.00134662
0.000816269
0.000475384
0.000154118
0.000104066
-6.69425e-06
-6.34416e-05
-0.000173522
-0.000422051
-0.000666488
-0.00101911
-0.00135585
-0.00168421
-0.00202691
-0.0023229
-0.00264541
-0.00293546
-0.00323586
-0.00349673
-0.00374832
-0.00393589
-0.0040989
-0.00417772
-0.00421815
-0.0041657
-0.0040665
-0.00388046
-0.00364804
-0.00334964
-0.00301525
-0.00264694
-0.00226158
-0.00187891
-0.00150235
-0.00116156
-0.000847964
-0.000592135
-0.000376004
-0.000223642
-0.00011015
-4.95781e-05
-1.26329e-05
-4.4676e-06
6.30012e-06
1.86142e-05
6.33331e-05
0.0001374
0.000267859
0.000445112
0.000688507
0.000981088
0.00133072
0.0017167
0.00213269
0.00256106
0.00298076
0.00338485
0.00373957
0.00405424
0.00428684
0.0044643
0.00454242
0.00456219
0.00448358
0.00435432
0.00414387
0.00389782
0.00359679
0.00328589
0.00293104
0.00259793
0.00220088
0.00182609
0.00141453
0.000992917
0.000663355
0.00032367
0.000159385
3.81889e-05
-4.41385e-05
-5.95169e-05
-0.000267101
-0.000466446
-0.000877626
-0.00135691
-0.00174941
-0.00217485
-0.00227592
-0.0023122
-0.00216676
-0.00199995
-0.00190054
0.00215321
0.00228691
0.00250721
0.00274378
0.00281978
0.00281144
0.00242278
0.00201915
0.00142002
0.000882364
0.000532876
0.000193294
0.000122162
3.32766e-06
-6.00746e-05
-0.000163864
-0.000404129
-0.000638574
-0.000986359
-0.00132003
-0.00165088
-0.00199769
-0.00229641
-0.00262379
-0.00291394
-0.0032176
-0.0034809
-0.00373622
-0.00392691
-0.00409399
-0.00417639
-0.00422055
-0.00417165
-0.0040752
-0.0038922
-0.00366114
-0.00336492
-0.00303042
-0.00266324
-0.00227655
-0.00189399
-0.00151542
-0.00117387
-0.000858205
-0.00060098
-0.000383216
-0.000229049
-0.000114605
-5.19937e-05
-1.46997e-05
-4.4009e-06
6.43822e-06
2.08393e-05
6.57639e-05
0.000141684
0.000272791
0.000451417
0.000695953
0.000989156
0.00134018
0.00172581
0.00214297
0.00256993
0.00299006
0.00339177
0.00374582
0.00405741
0.00428816
0.00446229
0.0045376
0.00455427
0.00447239
0.00434069
0.00412713
0.00387944
0.00357547
0.00326516
0.00290485
0.00256841
0.00216506
0.00178591
0.00137494
0.000956597
0.000636815
0.000307615
0.000153193
3.232e-05
-5.18013e-05
-8.38052e-05
-0.000305903
-0.000517731
-0.000939356
-0.00140923
-0.00179692
-0.00218884
-0.00227543
-0.00229247
-0.00214054
-0.00198825
-0.00188726
0.00213108
0.00226471
0.00246125
0.00269718
0.00279565
0.0027866
0.00248684
0.00208491
0.00154618
0.0010119
0.000624446
0.000287134
0.000144156
2.58e-05
-5.96036e-05
-0.000163445
-0.000371133
-0.000605026
-0.000924346
-0.00125719
-0.00159253
-0.00193884
-0.00225408
-0.00258129
-0.00288088
-0.00318443
-0.00345523
-0.00371046
-0.00391069
-0.00407772
-0.00417096
-0.00421511
-0.00417688
-0.00408046
-0.00390653
-0.00367555
-0.00338571
-0.00305132
-0.00268734
-0.00230078
-0.00191831
-0.00153985
-0.00119581
-0.000880246
-0.00061866
-0.000400966
-0.000241263
-0.000126855
-5.80594e-05
-2.07774e-05
-4.03773e-06
6.7979e-06
2.75038e-05
7.24139e-05
0.00015397
0.000285035
0.000467908
0.000712366
0.00100761
0.00135852
0.00174331
0.00216034
0.00258327
0.00300327
0.00339801
0.00375194
0.00405445
0.00428512
0.00444932
0.00452461
0.00453193
0.00445008
0.00431092
0.00409743
0.00384464
0.00354077
0.00322268
0.00286255
0.00250644
0.00210363
0.00171169
0.00130171
0.000907001
0.000588045
0.000301002
0.000146639
2.6635e-05
-5.74041e-05
-0.000144791
-0.000365415
-0.000625632
-0.00104441
-0.00148352
-0.00186922
-0.00218629
-0.00227301
-0.00226296
-0.00211143
-0.00197595
-0.00187502
0.00210351
0.00223708
0.00241663
0.00265185
0.00278411
0.00277399
0.00255602
0.00215592
0.00168241
0.00115178
0.000723328
0.000388465
0.000167906
5.00665e-05
-5.9095e-05
-0.000162993
-0.000335503
-0.0005688
-0.000857382
-0.00118933
-0.00152953
-0.00187528
-0.00220836
-0.00253541
-0.00284517
-0.00314862
-0.0034275
-0.00368265
-0.00389317
-0.00406014
-0.0041651
-0.00420923
-0.00418252
-0.00408614
-0.003922
-0.0036911
-0.00340817
-0.00307389
-0.00271337
-0.00232694
-0.00194456
-0.00156624
-0.0012195
-0.000904046
-0.000637752
-0.000420133
-0.000254452
-0.000140084
-6.46094e-05
-2.73403e-05
-3.64557e-06
7.18629e-06
3.47003e-05
7.95948e-05
0.000167237
0.000298256
0.000485715
0.000730088
0.00102755
0.00137833
0.00176222
0.0021791
0.00259768
0.00301754
0.00340474
0.00375855
0.00405125
0.00428184
0.00443531
0.00451057
0.00450781
0.00442599
0.00427878
0.00406536
0.00380706
0.00350329
0.00317682
0.00281687
0.00243952
0.00203729
0.00163155
0.00122262
0.000853446
0.000535381
0.000293861
0.000139561
2.0496e-05
-6.34542e-05
-0.000210646
-0.000429678
-0.000742147
-0.00115786
-0.00156375
-0.00194729
-0.00219608
-0.00228321
-0.00223913
-0.00208809
-0.0019599
-0.00185901
0.0020146
0.00214801
0.00237759
0.00261227
0.00285488
0.00284679
0.00271411
0.00231862
0.00181136
0.00128409
0.000766431
0.000432396
0.000164008
4.59601e-05
-3.51456e-05
-0.000138529
-0.000265801
-0.00049778
-0.000775284
-0.00110611
-0.0014648
-0.00180999
-0.0021626
-0.00248947
-0.00281309
-0.00311642
-0.00341278
-0.00366783
-0.00389871
-0.00406562
-0.00418962
-0.00423374
-0.00422107
-0.00412472
-0.00396689
-0.00373607
-0.00345085
-0.0031167
-0.00274659
-0.0023603
-0.0019642
-0.00158603
-0.00122553
-0.000910195
-0.000633895
-0.000416358
-0.000246692
-0.000132367
-5.89761e-05
-2.1721e-05
-4.02638e-06
6.80142e-06
2.79403e-05
7.2818e-05
0.000157322
0.000288291
0.000478159
0.00072244
0.00102796
0.00137862
0.00177401
0.00219074
0.00262055
0.00304025
0.00343447
0.00378815
0.00408085
0.00431135
0.00445709
0.00453232
0.00451558
0.00443379
0.00426947
0.00405613
0.0037817
0.00347805
0.00313622
0.00277645
0.0023746
0.00197294
0.00153896
0.00113127
0.000762553
0.000446148
0.000247999
9.46834e-05
2.06866e-05
-6.33402e-05
-0.000229173
-0.000447948
-0.000835257
-0.00124869
-0.00170413
-0.00208371
-0.00228282
-0.00236759
-0.00222852
-0.00207764
-0.00189784
-0.00179706
0.00191886
0.0020522
0.00232723
0.00256571
0.0029278
0.00291649
0.00288544
0.0024951
0.00194895
0.00142527
0.000808131
0.000474905
0.000157954
3.96416e-05
-6.93162e-06
-0.000109737
-0.000185498
-0.000416041
-0.000684597
-0.00101421
-0.00139567
-0.00174026
-0.00211387
-0.00244054
-0.00277879
-0.003082
-0.00339771
-0.00365266
-0.00390601
-0.00407285
-0.00421776
-0.00426187
-0.00426443
-0.00416812
-0.00401687
-0.00378615
-0.00349792
-0.00316391
-0.00278273
-0.0023966
-0.00198495
-0.00160692
-0.00123099
-0.000915783
-0.000628414
-0.000410966
-0.000237131
-0.000122852
-5.22101e-05
-1.49701e-05
-4.4808e-06
6.3426e-06
1.98598e-05
6.47192e-05
0.000145312
0.000276228
0.000468561
0.000712743
0.00102727
0.00137779
0.00178629
0.00220284
0.00264565
0.00306518
0.00346778
0.00382131
0.00411458
0.00434499
0.00448259
0.00455779
0.00452579
0.00444403
0.00426078
0.00404753
0.00375514
0.00345161
0.00309403
0.00273447
0.00230621
0.00190516
0.00143774
0.00103139
0.000659158
0.000344561
0.000194696
4.2479e-05
2.1313e-05
-6.28052e-05
-0.000245224
-0.000463788
-0.00093286
-0.00134386
-0.00185621
-0.0022314
-0.00236798
-0.0024555
-0.00221127
-0.00205607
-0.00183101
-0.00173024
0.00183323
0.00196609
0.00224055
0.00250753
0.00286851
0.00294409
0.00292472
0.00261705
0.00207619
0.00156894
0.000944535
0.000560614
0.000240163
6.92547e-05
2.5681e-05
-8.14246e-05
-0.000149506
-0.000349079
-0.000615424
-0.000919105
-0.00130398
-0.00163933
-0.00201493
-0.00233676
-0.00267095
-0.002971
-0.00328808
-0.00354546
-0.00380046
-0.00397614
-0.00412262
-0.0041806
-0.00418435
-0.00410482
-0.00395414
-0.00374071
-0.00345237
-0.00313408
-0.00275219
-0.00237882
-0.00196612
-0.00159733
-0.00122035
-0.000911044
-0.000622932
-0.000408705
-0.000234616
-0.000121707
-5.13078e-05
-1.44184e-05
-4.49376e-06
6.1719e-06
1.90912e-05
6.30815e-05
0.000143338
0.000271617
0.000464063
0.000702702
0.0010178
0.00135891
0.00176826
0.00217113
0.00261477
0.00301683
0.00341992
0.00375378
0.00404698
0.00425792
0.00439482
0.00445361
0.00442043
0.00432785
0.0041432
0.00392639
0.00363272
0.00333185
0.00298002
0.00262368
0.00219316
0.0017971
0.00132461
0.000941759
0.000569989
0.000294149
0.000152087
1.53493e-05
-3.32707e-07
-0.000117836
-0.000301207
-0.000569606
-0.00104488
-0.0014599
-0.00197111
-0.00228699
-0.00241451
-0.00242431
-0.00218063
-0.00199237
-0.00176774
-0.0016638
0.00174076
0.00187312
0.00214695
0.00244471
0.00280449
0.00297389
0.00295547
0.00274832
0.00221087
0.00172318
0.00110244
0.000656677
0.00033842
0.000103928
6.11678e-05
-5.1188e-05
-0.000118674
-0.000280923
-0.000546225
-0.000817419
-0.00120116
-0.00152373
-0.00189868
-0.00221455
-0.00254857
-0.00284494
-0.00316187
-0.0034221
-0.00367698
-0.00386296
-0.00400937
-0.0040835
-0.00408724
-0.00402723
-0.00387662
-0.00368331
-0.00339511
-0.00309509
-0.00271339
-0.00235484
-0.00194234
-0.00158427
-0.00120748
-0.000905024
-0.000617048
-0.000406562
-0.000232555
-0.000121236
-5.08696e-05
-1.43877e-05
-4.46769e-06
6.01475e-06
1.89279e-05
6.19085e-05
0.000142127
0.000267342
0.000459697
0.000691896
0.00100685
0.00133701
0.00174617
0.00213313
0.00257656
0.00295832
0.00336122
0.0036722
0.00396525
0.00415356
0.0042904
0.00433007
0.00429691
0.00419173
0.00400717
0.00378621
0.00349268
0.00319489
0.00284322
0.00249074
0.00206096
0.00167262
0.0012015
0.000848455
0.000478093
0.000249109
0.000107885
-1.0264e-05
-2.53449e-05
-0.000183187
-0.000365066
-0.000694174
-0.00116652
-0.00158689
-0.00209488
-0.00233869
-0.00246476
-0.00239063
-0.00214753
-0.00192359
-0.00169942
-0.00159206
0.00164091
0.00177272
0.00204589
0.00237687
0.00273536
0.00300606
0.00298868
0.00289008
0.00235631
0.00188972
0.00127295
0.000760409
0.000444521
0.00014137
9.94879e-05
-1.85371e-05
-8.53814e-05
-0.000207326
-0.0004715
-0.000707614
-0.00109013
-0.0013989
-0.00177316
-0.00208257
-0.00241642
-0.00270883
-0.00302559
-0.00328889
-0.00354364
-0.00374074
-0.00388707
-0.00397864
-0.00398238
-0.00394345
-0.00379292
-0.00362133
-0.00333327
-0.00305299
-0.00267148
-0.00232894
-0.00191665
-0.00157017
-0.00119357
-0.000898523
-0.000610695
-0.000404247
-0.00023033
-0.000120727
-5.03963e-05
-1.43544e-05
-4.43953e-06
5.84505e-06
1.87516e-05
6.06418e-05
0.000140819
0.000262727
0.000454983
0.000680228
0.000995017
0.00131337
0.00172232
0.0020921
0.0025353
0.00289514
0.00329783
0.0035841
0.003877
0.00404086
0.00417763
0.00419667
0.00416353
0.00404475
0.00386028
0.00363484
0.00334146
0.00304699
0.00269551
0.00234719
0.0019182
0.00153819
0.00106857
0.000747701
0.000378861
0.000200473
6.01546e-05
-3.79223e-05
-5.23542e-05
-0.000253757
-0.000434023
-0.000828689
-0.00129788
-0.00172401
-0.00222854
-0.00239453
-0.00251902
-0.00235427
-0.0021118
-0.00184931
-0.00162564
-0.00151458
0.00154888
0.00168031
0.00192332
0.00226001
0.00260594
0.00291343
0.00296865
0.00291534
0.00250629
0.00205091
0.00148944
0.000952268
0.000588749
0.000259215
0.000138397
1.84809e-05
-6.68322e-05
-0.000171892
-0.000393929
-0.000613727
-0.000948545
-0.00124937
-0.00159413
-0.00190045
-0.00220991
-0.00250066
-0.00279997
-0.00306438
-0.00330936
-0.00351073
-0.00365858
-0.00375692
-0.00377399
-0.00374329
-0.00361658
-0.00345352
-0.00319669
-0.00292421
-0.00257702
-0.00224084
-0.00186114
-0.00151931
-0.00116926
-0.000877202
-0.000606917
-0.000402118
-0.000235818
-0.000126923
-5.57082e-05
-1.98515e-05
-4.1288e-06
6.07491e-06
2.47014e-05
6.61513e-05
0.000146673
0.000267248
0.000450256
0.000672707
0.000966688
0.00128032
0.00165784
0.00202079
0.00242568
0.00277685
0.00314005
0.00341657
0.00367504
0.00382931
0.00394205
0.00395303
0.00390954
0.00378548
0.003605
0.0033779
0.00309936
0.00280628
0.00248002
0.00213375
0.00173401
0.00135994
0.000940557
0.000635355
0.000323121
0.000166206
3.4175e-05
-5.54397e-05
-0.00013001
-0.000348097
-0.000586005
-0.00100537
-0.00145136
-0.00187749
-0.00228172
-0.00241461
-0.00246114
-0.00226261
-0.00201858
-0.00174845
-0.00155111
-0.00143902
0.00142497
0.0015562
0.00176317
0.00209789
0.00248059
0.00278456
0.00297323
0.00291976
0.00268947
0.00223896
0.00173256
0.00120127
0.000735531
0.000409286
0.000167917
4.85208e-05
-5.29529e-05
-0.000157769
-0.000303565
-0.000522095
-0.000773901
-0.00107331
-0.00136734
-0.00167319
-0.00194897
-0.00223955
-0.00251224
-0.00277649
-0.00300932
-0.00321056
-0.00336445
-0.00346274
-0.00350392
-0.00347325
-0.00338583
-0.00322287
-0.00301529
-0.00274297
-0.00244836
-0.00211238
-0.00178182
-0.00144019
-0.0011301
-0.000838222
-0.000595112
-0.000390436
-0.000237699
-0.000128869
-5.98037e-05
-2.39684e-05
-3.88121e-06
6.31641e-06
2.91201e-05
7.05453e-05
0.000147954
0.000268456
0.000435225
0.000657543
0.000919151
0.0012326
0.00156245
0.00192517
0.00227185
0.0026228
0.00292503
0.00320138
0.0034052
0.00355937
0.00363208
0.00364306
0.00357987
0.00345589
0.0032781
0.00305113
0.00279445
0.00250155
0.00220626
0.00186055
0.00150963
0.00113734
0.000804542
0.000501196
0.000287488
0.000131216
2.5518e-05
-6.40043e-05
-0.000223579
-0.000439633
-0.000785858
-0.00120049
-0.00163982
-0.00206104
-0.0023293
-0.00246108
-0.00237887
-0.00218275
-0.00188995
-0.00162142
-0.00144605
-0.00133413
0.00122257
0.00135269
0.0015675
0.00190025
0.00238987
0.00269421
0.00312381
0.00307108
0.00297554
0.00253291
0.00196027
0.00143438
0.000809505
0.000485179
0.000161712
4.20277e-05
-6.60725e-06
-0.00011061
-0.000162897
-0.000379544
-0.000574308
-0.000872128
-0.0011283
-0.00143364
-0.00167061
-0.00196091
-0.0022136
-0.00247761
-0.00271062
-0.0029117
-0.0030828
-0.00318103
-0.00325315
-0.00322254
-0.00317459
-0.00301182
-0.00284651
-0.00257448
-0.00232
-0.00198436
-0.00168855
-0.00134725
-0.00106526
-0.000773655
-0.000552374
-0.000347888
-0.000212073
-0.000103343
-4.80167e-05
-1.22136e-05
-4.4204e-06
5.76797e-06
1.5951e-05
5.73383e-05
0.000119798
0.000240189
0.000387387
0.000609497
0.00084466
0.00115781
0.00145288
0.00181525
0.00211914
0.00246973
0.00272391
0.00299996
0.00315567
0.00330965
0.00334096
0.00335188
0.00326074
0.00313684
0.00294949
0.00272271
0.00247982
0.0021872
0.0019286
0.00158346
0.0012657
0.000895349
0.000612237
0.000311431
0.000196934
4.22529e-05
2.36451e-05
-6.59405e-05
-0.000256416
-0.000471447
-0.000950929
-0.00136179
-0.00189409
-0.00230855
-0.00250212
-0.00263226
-0.0023449
-0.00214742
-0.00173695
-0.00146835
-0.00127314
-0.00116201
0.00106768
0.00118012
0.00139383
0.00171311
0.00219888
0.00257585
0.00300259
0.00312132
0.00303183
0.00274235
0.00217438
0.00167398
0.00105288
0.000637275
0.000314221
0.00010082
5.40435e-05
-6.00219e-05
-0.000107022
-0.000264793
-0.000455159
-0.000681624
-0.000935461
-0.00117981
-0.00141685
-0.00165495
-0.00190746
-0.00213333
-0.00236618
-0.00254878
-0.00271976
-0.00282277
-0.00289483
-0.00289222
-0.0028443
-0.00272887
-0.00256367
-0.00235137
-0.00209706
-0.00182485
-0.00152925
-0.00124647
-0.000964675
-0.000719824
-0.000498698
-0.000325562
-0.000189842
-9.73472e-05
-4.20596e-05
-1.15491e-05
-3.76134e-06
4.94295e-06
1.51189e-05
5.03917e-05
0.000112808
0.000214806
0.0003619
0.000548545
0.000783544
0.00104372
0.00133858
0.00163485
0.00193852
0.00221832
0.00247231
0.00268349
0.00283908
0.00294441
0.00297569
0.0029618
0.00287072
0.00274909
0.00256187
0.00236287
0.00212014
0.00187568
0.00161783
0.00133508
0.00101986
0.000729029
0.000450287
0.00023073
0.000122107
-5.3858e-06
-2.08529e-05
-0.000171744
-0.000361764
-0.000667816
-0.00114446
-0.00156577
-0.00209421
-0.00239851
-0.00258654
-0.00256216
-0.00227636
-0.00199535
-0.00158791
-0.00131758
-0.00112332
-0.00102412
0.000900426
0.000993763
0.00120697
0.00151104
0.00199265
0.00244804
0.00287169
0.00317558
0.00308759
0.00296776
0.00240511
0.00193271
0.00131732
0.000801514
0.000481974
0.000165348
0.000119907
-5.41153e-06
-5.15476e-05
-0.000143809
-0.000332875
-0.00047809
-0.000730921
-0.000905974
-0.00114282
-0.00132455
-0.00157687
-0.00176156
-0.00199423
-0.00215687
-0.00232773
-0.0024359
-0.00250792
-0.00253552
-0.00248764
-0.00242332
-0.00225825
-0.00211044
-0.00185633
-0.00165261
-0.00135724
-0.00113764
-0.000856056
-0.000661696
-0.000440737
-0.000301454
-0.000165836
-9.08729e-05
-3.5627e-05
-1.08315e-05
-3.04965e-06
4.05207e-06
1.42203e-05
4.28905e-05
0.00010526
0.000187395
0.000334379
0.000482727
0.000717549
0.000920514
0.00121516
0.00144004
0.00174349
0.00194683
0.00220063
0.00234174
0.00249722
0.00255
0.00258126
0.00254057
0.00244956
0.00233039
0.0021433
0.00197429
0.00173175
0.00153929
0.00128165
0.00106975
0.000755815