/*--------------------------------*- C++ -*----------------------------------*\
| =========                 |                                                 |
| \\      /  F ield         | OpenFOAM: The Open Source CFD Toolbox           |
|  \\    /   O peration     | Version:  v2106                                 |
|   \\  /    A nd           | Website:  www.openfoam.com                      |
|    \\/     M anipulation  |                                                 |
\*---------------------------------------------------------------------------*/
FoamFile
{
    version     2.0;
    format      ascii;
    arch        "LSB;label=32;scalar=64";
    class       volScalarField;
    location    "0";
    object      expGpCoeffs5;
}
// * * * * * * * * * * * * * * * * * * * * * * * * * * * * * * * * * * * * * //

dimensions      [0 0 0 0 0 0 0];

internalField   nonuniform List<scalar> 
8000
(
0.127626
0.126944
0.124943
0.121175
0.115272
0.107773
0.0995694
0.0907397
0.0822611
0.074049
0.0665443
0.0597739
0.0538212
0.0486943
0.0443474
0.040731
0.0377216
0.0352808
0.0332529
0.0316344
0.0303094
0.0292881
0.0284617
0.0278398
0.0273142
0.0268854
0.0265172
0.0262107
0.0259821
0.0258333
0.0257835
0.025834
0.0259985
0.0262778
0.0266794
0.0272034
0.0278506
0.0286206
0.029507
0.0305085
0.0316115
0.032814
0.0340948
0.0354514
0.0368553
0.0383034
0.0397604
0.0412229
0.0426504
0.044039
0.0453451
0.0465646
0.0476533
0.0486075
0.0493856
0.0499843
0.0503686
0.0505358
0.0504605
0.0501411
0.0495647
0.0487309
0.0476409
0.0462956
0.0447106
0.042888
0.0408567
0.0386201
0.0362177
0.0336537
0.0309748
0.028186
0.0253369
0.0224328
0.019513
0.0165807
0.01359
0.0105382
0.00718247
0.00355381
-0.000725323
-0.00562747
-0.0114713
-0.0182626
-0.0260642
-0.0349433
-0.0446544
-0.0552547
-0.0663866
-0.0780053
-0.0897074
-0.10144
-0.112542
-0.123072
-0.132135
-0.1396
-0.145027
-0.147956
-0.14926
-0.149487
0.127681
0.126999
0.125136
0.121371
0.115384
0.107887
0.0995793
0.0907461
0.0822202
0.0740036
0.066485
0.0597107
0.0537602
0.0486301
0.0442952
0.0406767
0.0376841
0.0352423
0.0332265
0.0316076
0.0302885
0.0292672
0.0284506
0.0278287
0.0273097
0.026881
0.0265118
0.0262053
0.0259748
0.025826
0.0257747
0.0258252
0.0259888
0.0262681
0.0266693
0.0271933
0.0278409
0.0286108
0.0294981
0.0304996
0.0316042
0.0328066
0.0340898
0.0354462
0.0368531
0.038301
0.0397616
0.0412239
0.0426553
0.0440438
0.045354
0.0465733
0.047666
0.04862
0.0494017
0.0500003
0.0503874
0.0505545
0.050481
0.0501616
0.0495857
0.048752
0.0476611
0.0463159
0.0447287
0.0429064
0.0408717
0.0386354
0.0362288
0.0336651
0.0309815
0.028193
0.0253392
0.0224354
0.0195127
0.0165808
0.0135996
0.0105481
0.00721849
0.00358992
-0.000660582
-0.00556359
-0.0113872
-0.018181
-0.0259858
-0.0348688
-0.0446028
-0.0552074
-0.0663677
-0.0779907
-0.0897312
-0.101468
-0.112631
-0.123162
-0.132309
-0.13977
-0.145228
-0.148154
-0.149278
-0.149506
0.12774
0.127059
0.125345
0.121582
0.115505
0.108009
0.0995899
0.0907529
0.0821761
0.0739545
0.0664211
0.0596426
0.0536942
0.0485608
0.0442388
0.040618
0.0376437
0.0352007
0.033198
0.0315788
0.0302659
0.0292446
0.0284385
0.0278167
0.0273049
0.0268762
0.0265059
0.0261995
0.0259668
0.0258181
0.0257652
0.0258158
0.0259783
0.0262576
0.0266585
0.0271824
0.0278304
0.0286002
0.0294886
0.0304899
0.0315964
0.0327986
0.0340844
0.0354406
0.0368508
0.0382984
0.0397629
0.041225
0.0426607
0.0440489
0.0453635
0.0465827
0.0476797
0.0486336
0.0494191
0.0500176
0.0504077
0.0505748
0.0505031
0.0501838
0.0496083
0.0487747
0.0476828
0.0463379
0.0447483
0.0429262
0.040888
0.038652
0.0362408
0.0336775
0.0309888
0.0282006
0.0253416
0.0224382
0.0195123
0.0165808
0.0136099
0.0105588
0.00725739
0.00362892
-0.000590671
-0.00549461
-0.0112963
-0.0180928
-0.0259012
-0.0347884
-0.0445471
-0.0551564
-0.0663473
-0.0779749
-0.0897569
-0.101498
-0.112727
-0.123261
-0.132496
-0.139954
-0.145445
-0.148369
-0.149298
-0.149526
0.127804
0.127123
0.12557
0.121811
0.115636
0.108142
0.0996014
0.0907602
0.0821285
0.0739016
0.066352
0.0595689
0.053623
0.048486
0.0441779
0.0405547
0.0376
0.0351558
0.0331673
0.0315476
0.0302416
0.0292202
0.0284255
0.0278038
0.0272996
0.026871
0.0264996
0.0261932
0.0259583
0.0258096
0.025755
0.0258055
0.0259671
0.0262463
0.0266468
0.0271707
0.027819
0.0285887
0.0294783
0.0304794
0.0315879
0.03279
0.0340785
0.0354346
0.0368483
0.0382957
0.0397643
0.0412261
0.0426664
0.0440545
0.0453739
0.0465928
0.0476945
0.0486482
0.0494378
0.0500363
0.0504296
0.0505967
0.0505269
0.0502077
0.0496327
0.0487993
0.0477064
0.0463616
0.0447694
0.0429476
0.0409055
0.0386698
0.0362537
0.0336908
0.0309966
0.0282089
0.0253442
0.0224412
0.0195119
0.0165809
0.013621
0.0105704
0.00729939
0.00367103
-0.000515178
-0.00542013
-0.0111982
-0.0179976
-0.0258098
-0.0347016
-0.0444869
-0.0551012
-0.0663253
-0.0779579
-0.0897846
-0.10153
-0.112832
-0.123367
-0.132698
-0.140153
-0.14568
-0.1486
-0.149319
-0.149547
0.127873
0.127192
0.125813
0.122075
0.115778
0.108284
0.0996138
0.0907682
0.0820771
0.0738444
0.0662775
0.0594894
0.0535461
0.0484053
0.0441121
0.0404863
0.0375529
0.0351073
0.0331341
0.031514
0.0302153
0.0291938
0.0284114
0.0277898
0.027294
0.0268655
0.0264927
0.0261864
0.0259491
0.0258004
0.025744
0.0257945
0.0259549
0.026234
0.0266342
0.027158
0.0278067
0.0285763
0.0294672
0.0304682
0.0315788
0.0327806
0.0340722
0.035428
0.0368455
0.0382927
0.0397658
0.0412274
0.0426727
0.0440605
0.045385
0.0466038
0.0477105
0.048664
0.0494581
0.0500565
0.0504532
0.0506203
0.0505527
0.0502335
0.0496591
0.0488258
0.0477317
0.0463872
0.0447922
0.0429708
0.0409244
0.0386891
0.0362677
0.0337051
0.031005
0.0282178
0.025347
0.0224445
0.0195115
0.0165809
0.013633
0.0105829
0.00734475
0.0037165
-0.000433658
-0.00533969
-0.0110922
-0.0178947
-0.0257111
-0.0346078
-0.0444219
-0.0550417
-0.0663015
-0.0779395
-0.0898146
-0.101565
-0.112944
-0.123481
-0.132916
-0.140368
-0.145944
-0.148851
-0.149342
-0.14957
0.128055
0.127377
0.126184
0.122466
0.116021
0.108609
0.0996722
0.0908817
0.0820289
0.0738068
0.0662137
0.0594376
0.0534846
0.0483549
0.0440465
0.0404179
0.037502
0.035055
0.0330983
0.0314777
0.0301869
0.0291654
0.0283963
0.0277747
0.0272892
0.0268567
0.0264827
0.0261726
0.025933
0.0257809
0.0257228
0.0257705
0.0259298
0.026207
0.0266068
0.0271293
0.0277785
0.0285477
0.0294398
0.0304411
0.0315538
0.0327567
0.0340511
0.0354086
0.0368297
0.038279
0.0397564
0.0412205
0.0426705
0.0440609
0.0453904
0.0466118
0.0477233
0.0486793
0.0494777
0.0500782
0.0504783
0.0506471
0.0505816
0.0502636
0.0496898
0.0488569
0.0477618
0.046417
0.0448193
0.0429968
0.0409463
0.0387092
0.0362827
0.0337176
0.0310118
0.0282214
0.0253447
0.0224387
0.0195022
0.0165676
0.013646
0.0105964
0.00739373
0.0037656
-0.000345629
-0.00525283
-0.0109778
-0.0177837
-0.0256181
-0.0345183
-0.0444253
-0.0550146
-0.0663299
-0.0779423
-0.089878
-0.10161
-0.113172
-0.12364
-0.133284
-0.140645
-0.146291
-0.149159
-0.149468
-0.149691
0.128479
0.1278
0.126609
0.122888
0.116451
0.109035
0.100106
0.0912945
0.0824498
0.0741791
0.0665931
0.0597444
0.0537969
0.0485849
0.0442805
0.0405777
0.0376554
0.0351458
0.0331938
0.0315307
0.0302459
0.0291938
0.028433
0.0277788
0.0272958
0.0268217
0.0264479
0.026098
0.0258584
0.0256717
0.0256136
0.0256334
0.0257926
0.0260497
0.0264494
0.0269604
0.0276094
0.0283756
0.0292675
0.0302741
0.0313866
0.0326022
0.0338964
0.035273
0.0366939
0.0381672
0.0396443
0.0411358
0.0425855
0.0440051
0.0453344
0.0465848
0.0476961
0.0486793
0.0494775
0.0501016
0.0505016
0.0506886
0.0506232
0.0503165
0.0497428
0.0489134
0.0478185
0.0464684
0.0448711
0.0430343
0.0409842
0.0387242
0.0362982
0.0337024
0.0309972
0.0281697
0.0252936
0.0223458
0.0194099
0.0164294
0.0135249
0.0104251
0.00724939
0.00353806
-0.000551518
-0.00558692
-0.0112987
-0.018246
-0.0260974
-0.0350925
-0.0449894
-0.0556326
-0.0669367
-0.0785516
-0.0904759
-0.102161
-0.113713
-0.124103
-0.133737
-0.141027
-0.146666
-0.1495
-0.149808
-0.150024
0.128937
0.128256
0.127068
0.123343
0.116915
0.109494
0.100574
0.0917404
0.0829042
0.0745812
0.0670027
0.0600756
0.0541342
0.0488332
0.0445331
0.0407502
0.0378308
0.0352626
0.0333123
0.0316102
0.0303264
0.0292406
0.0284802
0.0277859
0.027303
0.026784
0.0264102
0.0260175
0.0257779
0.0255538
0.0254957
0.0254853
0.0256445
0.0258798
0.0262795
0.0267779
0.0274268
0.0281898
0.0290815
0.0300938
0.0312061
0.0324354
0.0337294
0.0351266
0.0365471
0.0380465
0.0395232
0.0410444
0.0424938
0.0439449
0.0452739
0.0465557
0.0476668
0.0486794
0.0494774
0.0501269
0.0505268
0.0507335
0.050668
0.0503737
0.0498001
0.0489745
0.0478797
0.046524
0.044927
0.0430748
0.0410252
0.0387405
0.0363149
0.0336861
0.0309813
0.0281138
0.0252383
0.0222456
0.0193102
0.0162802
0.0133763
0.0102142
0.00703996
0.0032398
-0.000846281
-0.00599685
-0.0117025
-0.0187725
-0.026615
-0.0357126
-0.0455986
-0.0562999
-0.0675919
-0.0792096
-0.0911216
-0.102757
-0.114297
-0.124602
-0.134227
-0.14144
-0.147072
-0.149869
-0.150175
-0.150385
0.129431
0.128748
0.127563
0.123836
0.117417
0.109989
0.10108
0.0922218
0.083395
0.0750154
0.0674451
0.0604333
0.0544983
0.0491014
0.044806
0.0409365
0.0380202
0.0353887
0.0334404
0.0316961
0.0304133
0.0292911
0.028531
0.0277935
0.0273107
0.0267432
0.0263695
0.0259305
0.025691
0.0254265
0.0253683
0.0253253
0.0254845
0.0256964
0.026096
0.0265809
0.0272296
0.0279891
0.0288807
0.0298991
0.0310111
0.0322553
0.033549
0.0349684
0.0363887
0.0379161
0.0393925
0.0409457
0.0423948
0.0438799
0.0452086
0.0465243
0.0476351
0.0486794
0.0494772
0.0501542
0.050554
0.0507819
0.0507164
0.0504354
0.049862
0.0490404
0.0479459
0.046584
0.0449873
0.0431186
0.0410694
0.038758
0.036333
0.0336684
0.0309643
0.0280535
0.0251786
0.0221373
0.0192026
0.0161191
0.0132159
0.00998649
0.0068138
0.00291772
-0.00116458
-0.00643951
-0.0121384
-0.019341
-0.027174
-0.0363821
-0.0462563
-0.0570205
-0.0682995
-0.0799201
-0.0918188
-0.103399
-0.114927
-0.125142
-0.134756
-0.141885
-0.147509
-0.150268
-0.150571
-0.150774
0.129965
0.12928
0.128098
0.124367
0.117958
0.110525
0.101626
0.0927416
0.0839249
0.0754843
0.0679227
0.0608196
0.0548916
0.049391
0.0451006
0.0411377
0.0382248
0.0355249
0.0335786
0.0317888
0.0305071
0.0293457
0.028586
0.0278017
0.0273191
0.0266992
0.0263256
0.0258365
0.0255971
0.025289
0.0252309
0.0251526
0.0253118
0.0254984
0.0258978
0.0263681
0.0270167
0.0277724
0.0286638
0.0296889
0.0308006
0.0320609
0.0333542
0.0347977
0.0362176
0.0377753
0.0392514
0.0408391
0.0422879
0.0438096
0.045138
0.0464904
0.0476009
0.0486794
0.0494771
0.0501836
0.0505834
0.0508342
0.0507687
0.0505021
0.0499288
0.0491115
0.0480173
0.0466488
0.0450525
0.0431659
0.0411172
0.038777
0.0363526
0.0336493
0.0309458
0.0279884
0.0251142
0.0220204
0.0190864
0.0159451
0.0130426
0.00974055
0.0065696
0.00256993
-0.00150829
-0.0069175
-0.0126092
-0.019955
-0.0277775
-0.0371051
-0.0469666
-0.0577986
-0.0690635
-0.0806873
-0.0925717
-0.104093
-0.115608
-0.125725
-0.135327
-0.142367
-0.147982
-0.150698
-0.150999
-0.151194
0.130541
0.129855
0.128676
0.124941
0.118542
0.111103
0.102216
0.093303
0.0844972
0.0759906
0.0684386
0.0612367
0.0553162
0.0497037
0.0454187
0.041355
0.0384457
0.035672
0.0337279
0.0318889
0.0306084
0.0294046
0.0286453
0.0278106
0.0273281
0.0266517
0.0262781
0.0257351
0.0254958
0.0251405
0.0250824
0.0249661
0.0251253
0.0252845
0.0256839
0.0261384
0.0267868
0.0275384
0.0284296
0.0294618
0.0305733
0.0318509
0.0331439
0.0346133
0.0360329
0.0376232
0.039099
0.040724
0.0421724
0.0437338
0.0450619
0.0464537
0.047564
0.0486794
0.0494769
0.0502154
0.0506151
0.0508906
0.0508252
0.0505741
0.0500009
0.0491883
0.0480944
0.0467188
0.0451229
0.043217
0.0411688
0.0387975
0.0363737
0.0336287
0.0309259
0.0279181
0.0250446
0.0218941
0.0189609
0.0157573
0.0128554
0.00947499
0.00630589
0.00219437
-0.00187944
-0.00743367
-0.0131176
-0.0206179
-0.0284293
-0.0378858
-0.0477336
-0.0586388
-0.0698885
-0.0815158
-0.0933847
-0.104843
-0.116343
-0.126354
-0.135944
-0.142887
-0.148492
-0.151162
-0.151461
-0.151648
0.131164
0.130475
0.1293
0.12556
0.119174
0.111727
0.102853
0.0939092
0.0851151
0.0765373
0.0689956
0.0616871
0.0557748
0.0500414
0.0457623
0.0415896
0.0386842
0.0358308
0.0338892
0.031997
0.0307179
0.0294682
0.0287094
0.0278202
0.0273378
0.0266003
0.0262269
0.0256256
0.0253863
0.0249802
0.0249221
0.0247648
0.0249238
0.0250535
0.0254528
0.0258903
0.0265385
0.0272858
0.0281767
0.0292167
0.0303278
0.0316241
0.0329168
0.0344142
0.0358334
0.0374591
0.0389344
0.0405998
0.0420478
0.0436519
0.0449796
0.0464141
0.0475241
0.0486794
0.0494767
0.0502498
0.0506493
0.0509516
0.0508862
0.0506518
0.0500788
0.0492713
0.0481777
0.0467943
0.0451989
0.0432721
0.0412245
0.0388196
0.0363964
0.0336065
0.0309044
0.0278422
0.0249695
0.0217578
0.0188254
0.0155544
0.0126534
0.00918822
0.00602113
0.00178882
-0.00228023
-0.00799104
-0.0136665
-0.0213338
-0.0291331
-0.0387288
-0.0485619
-0.0595461
-0.0707794
-0.0824104
-0.0942626
-0.105652
-0.117137
-0.127033
-0.13661
-0.143448
-0.149043
-0.151664
-0.151959
-0.152138
0.132103
0.13141
0.130173
0.126401
0.12014
0.112617
0.103829
0.0948151
0.0860093
0.0773738
0.0698148
0.0624192
0.0564553
0.0506234
0.0462494
0.0419999
0.0390014
0.0360996
0.034096
0.0321717
0.0308563
0.0295722
0.028787
0.0278524
0.0273322
0.0265524
0.0261338
0.0254922
0.0252123
0.024771
0.0246786
0.0244928
0.0246254
0.0247346
0.0251161
0.0255416
0.0261812
0.0269254
0.0278165
0.0288618
0.0299815
0.0312907
0.0325991
0.0341159
0.0355567
0.0372067
0.038708
0.0404011
0.0418777
0.0435113
0.0448683
0.0463323
0.0474706
0.0486535
0.0494764
0.0502734
0.0506942
0.051015
0.050965
0.0507422
0.0501774
0.0493735
0.0482798
0.0468913
0.0452869
0.0433459
0.0412804
0.0388525
0.0364029
0.0335821
0.030846
0.0277464
0.0248336
0.0215798
0.0186007
0.0152834
0.012359
0.00882302
0.00560322
0.00128319
-0.00289782
-0.00869974
-0.0145313
-0.0222871
-0.0302394
-0.0399284
-0.04983
-0.0608943
-0.0720759
-0.0837244
-0.0954744
-0.106819
-0.118195
-0.128062
-0.137439
-0.144276
-0.149699
-0.152324
-0.152735
-0.152912
0.133412
0.13272
0.131126
0.127367
0.121308
0.113813
0.105244
0.0962677
0.0874615
0.0788625
0.0711299
0.0637649
0.05753
0.0517214
0.0470492
0.0428157
0.0395548
0.0366625
0.0344735
0.0325543
0.0311089
0.0298269
0.0289004
0.0279662
0.0272948
0.0265153
0.0259601
0.0253186
0.0249164
0.0244752
0.0242793
0.0240936
0.0241462
0.0242554
0.0245833
0.0250088
0.0256225
0.0263665
0.027259
0.0283039
0.0294502
0.0307589
0.0321158
0.0336321
0.0351392
0.0367886
0.0383691
0.0400617
0.0416252
0.0432583
0.0447047
0.0461682
0.0473927
0.0485753
0.0494761
0.0502728
0.0507581
0.0510788
0.0510751
0.0508524
0.0503119
0.0495083
0.0484138
0.0470257
0.0453936
0.0434531
0.0413326
0.0389055
0.0363749
0.0335549
0.0307148
0.0276162
0.0245808
0.021328
0.0182065
0.0148902
0.0117645
0.00823043
0.00470573
0.000393191
-0.00418314
-0.00996808
-0.0162285
-0.0239551
-0.0322573
-0.0419061
-0.0520058
-0.0630235
-0.0742314
-0.0858308
-0.0974098
-0.108707
-0.119714
-0.129543
-0.138455
-0.145268
-0.150429
-0.153044
-0.153841
-0.154017
0.134844
0.134154
0.13254
0.128793
0.122666
0.1152
0.106772
0.0978364
0.0890297
0.08047
0.0725501
0.065218
0.0586905
0.0529071
0.0479128
0.0436968
0.0401523
0.0372704
0.0348812
0.0329675
0.0313817
0.030102
0.0290228
0.0280892
0.0272544
0.0264752
0.0257725
0.0251313
0.0245969
0.0241558
0.0238482
0.0236625
0.0236287
0.0237379
0.0240081
0.0244334
0.0250193
0.0257629
0.0266569
0.0277014
0.0288764
0.0301847
0.0315939
0.0331097
0.0346883
0.0363372
0.0380032
0.0396952
0.0413526
0.0429851
0.0445279
0.0459909
0.0473087
0.0484908
0.0494757
0.0502721
0.050827
0.0511476
0.051194
0.0509715
0.0504572
0.0496538
0.0485584
0.0471708
0.0455087
0.0435689
0.041389
0.0389627
0.0363446
0.0335256
0.0305731
0.0274755
0.0243078
0.0210562
0.0177808
0.0144657
0.0111226
0.00759053
0.00373659
-0.00056787
-0.00557107
-0.0113377
-0.0180613
-0.0257562
-0.0344364
-0.0440416
-0.0543554
-0.0653227
-0.076559
-0.0881055
-0.0994998
-0.110746
-0.121355
-0.131142
-0.139684
-0.146474
-0.15158
-0.154187
-0.155041
-0.155215
0.136697
0.136009
0.134765
0.131048
0.124689
0.117275
0.108515
0.099626
0.0905451
0.0820222
0.0737886
0.0664835
0.0596048
0.0538399
0.0485355
0.0443305
0.0405686
0.0376931
0.0351716
0.0332614
0.0315827
0.0303047
0.0291146
0.0281815
0.0271866
0.0264077
0.0255317
0.0248907
0.0241993
0.0237584
0.0233192
0.0231336
0.0229996
0.0231087
0.0233137
0.0237389
0.0242963
0.0250397
0.0259414
0.0269856
0.0282021
0.0295098
0.0309905
0.0325057
0.0341803
0.0358285
0.0376089
0.0393003
0.0410834
0.0427153
0.0443878
0.0458502
0.0472934
0.0484751
0.0495734
0.0503695
0.0510178
0.0513383
0.051451
0.0512285
0.0507474
0.0499443
0.0488447
0.0474577
0.0457519
0.0438129
0.0415503
0.0391249
0.0363883
0.0335704
0.030469
0.0273726
0.024033
0.0207826
0.0173289
0.014015
0.0105085
0.00697858
0.00290925
-0.00138839
-0.00672461
-0.0124768
-0.019627
-0.0272964
-0.0364368
-0.0460036
-0.0567067
-0.0676243
-0.0790732
-0.0905626
-0.101972
-0.113157
-0.123681
-0.133406
-0.141818
-0.148553
-0.153505
-0.156086
-0.156414
-0.156587
0.138694
0.138007
0.137029
0.133251
0.126863
0.11944
0.110398
0.101559
0.0921652
0.0836818
0.0751034
0.0678273
0.060571
0.0548256
0.0491766
0.0449834
0.0409813
0.0381124
0.0354541
0.0335476
0.0317779
0.0305017
0.0292062
0.0282735
0.0271121
0.0263334
0.0252696
0.0246289
0.0237672
0.0233265
0.0227446
0.0225591
0.0223164
0.0224255
0.02256
0.022985
0.0235118
0.0242549
0.0251653
0.026209
0.0274709
0.0287782
0.0303367
0.0318513
0.0336306
0.0352782
0.0371832
0.0388739
0.0407941
0.0424254
0.0442391
0.0457009
0.0472811
0.0484623
0.0496842
0.05048
0.0512301
0.0515504
0.0517354
0.051513
0.0510679
0.0502652
0.0491609
0.0477744
0.046021
0.0440827
0.0417299
0.0393056
0.0364397
0.0336229
0.0303592
0.027264
0.0237374
0.0204884
0.0168413
0.0135288
0.00986026
0.00633256
0.00206666
-0.00222362
-0.00789961
-0.0136363
-0.021252
-0.0288941
-0.0385621
-0.0480876
-0.0592344
-0.0700986
-0.0817883
-0.0932159
-0.104661
-0.115778
-0.126198
-0.135855
-0.144024
-0.150777
-0.155348
-0.157967
-0.157893
-0.158065
0.140592
0.1399
0.138933
0.13515
0.128802
0.121372
0.112384
0.103468
0.0940996
0.0854446
0.0768672
0.069312
0.0620475
0.0559588
0.0502884
0.0457586
0.0417335
0.0385901
0.0359158
0.0338043
0.0320192
0.0305644
0.029245
0.0281057
0.0269051
0.0258828
0.0248048
0.0239317
0.0230571
0.0224105
0.0218177
0.0214617
0.0212106
0.021191
0.02132
0.0216623
0.0221866
0.0228945
0.0238052
0.0248602
0.0261252
0.0274867
0.0290507
0.0306574
0.0324441
0.0342146
0.0361286
0.0379648
0.0398949
0.0416851
0.0435091
0.0451333
0.0467235
0.0480606
0.0492916
0.0502268
0.0509846
0.0514186
0.0516091
0.0514666
0.0510246
0.0502615
0.0491573
0.0477662
0.0460097
0.044021
0.0416622
0.0391428
0.0362681
0.0333161
0.0300411
0.0267772
0.0232374
0.0197951
0.0161345
0.012608
0.00894939
0.00518475
0.000901917
-0.0037108
-0.009431
-0.0155717
-0.0232354
-0.0312785
-0.0409832
-0.0508028
-0.0619484
-0.0729288
-0.0845835
-0.0959278
-0.107317
-0.11818
-0.128493
-0.137814
-0.145883
-0.15231
-0.156849
-0.15933
-0.159248
-0.159404
0.142642
0.141943
0.140988
0.1372
0.130896
0.123459
0.114525
0.105528
0.096212
0.0873452
0.0788118
0.0709183
0.0636882
0.0571877
0.0515418
0.0466042
0.0425944
0.0391107
0.0364443
0.0340687
0.0322867
0.0305933
0.0292745
0.027871
0.0266711
0.0253651
0.0242877
0.023144
0.0222699
0.0213836
0.0207912
0.0202366
0.0199857
0.0198164
0.0199454
0.0201915
0.0207155
0.0213825
0.0222928
0.0233609
0.0246253
0.0260501
0.0276134
0.0293273
0.0311132
0.0330269
0.0349399
0.0369456
0.0388747
0.0408499
0.042673
0.0444864
0.0460757
0.0475943
0.0488247
0.0499223
0.0506797
0.051246
0.0514364
0.0513869
0.0509451
0.0502282
0.0491246
0.047728
0.0459724
0.0439249
0.0415671
0.0389372
0.0360638
0.0329542
0.0296808
0.0262204
0.0226824
0.019015
0.0153561
0.0115806
0.00792372
0.00385383
-0.000421664
-0.00544778
-0.0111489
-0.0177922
-0.0254218
-0.0339577
-0.043613
-0.0537933
-0.0648779
-0.0760018
-0.08759
-0.0988383
-0.11016
-0.12072
-0.130968
-0.139874
-0.14789
-0.153965
-0.15847
-0.160802
-0.160711
-0.160851
0.144856
0.144149
0.143207
0.139415
0.133157
0.125712
0.116837
0.107753
0.098493
0.0893975
0.0809117
0.0726528
0.0654599
0.0585147
0.0528953
0.0475173
0.0435239
0.0396729
0.037015
0.0343542
0.0325755
0.0306245
0.0293065
0.0276177
0.0264183
0.0248061
0.0237292
0.0222935
0.0214198
0.0202748
0.0196826
0.0189138
0.018663
0.0183321
0.0184609
0.0186033
0.019127
0.0197498
0.0206597
0.0217419
0.0230057
0.0244988
0.0260613
0.0278911
0.029676
0.0317443
0.0336564
0.0358449
0.0377731
0.0399481
0.0417703
0.0437877
0.0453763
0.0470908
0.0483206
0.0495934
0.0503504
0.0510597
0.05125
0.0513009
0.0508593
0.0501923
0.0490892
0.0476867
0.045932
0.043821
0.0414645
0.0387151
0.0358431
0.0325635
0.0292918
0.0256192
0.022083
0.0181726
0.0145156
0.0104711
0.00681615
0.00241666
-0.00185092
-0.00732345
-0.0130039
-0.02019
-0.0277829
-0.0368509
-0.0464527
-0.0570225
-0.0680414
-0.0793203
-0.0908365
-0.101981
-0.11323
-0.123462
-0.133641
-0.142099
-0.150057
-0.155753
-0.16022
-0.162391
-0.162291
-0.162413
0.147005
0.146299
0.144748
0.141064
0.135106
0.127757
0.119177
0.110108
0.100925
0.0917711
0.0831993
0.0748223
0.0674223
0.0603219
0.0544083
0.0488657
0.0445433
0.0405437
0.0375841
0.0347958
0.0327591
0.0306832
0.0291123
0.0272927
0.0258248
0.0240937
0.0227676
0.0212184
0.020113
0.0188674
0.0180731
0.0172209
0.0168052
0.0164114
0.0164185
0.0165202
0.0169684
0.0175738
0.0184552
0.0195426
0.0208235
0.0223429
0.0239644
0.0258387
0.0277189
0.0298468
0.0318829
0.0341421
0.0362148
0.0384668
0.0404445
0.042541
0.0442862
0.0460766
0.0474547
0.0487954
0.0496832
0.050448
0.0507433
0.0508333
0.0504641
0.0498168
0.0487483
0.047344
0.0455833
0.0434482
0.0410443
0.0382493
0.0352905
0.0319457
0.0285519
0.0247979
0.0211109
0.0171071
0.0132656
0.00911757
0.00523497
0.000685647
-0.00389576
-0.0095607
-0.0155963
-0.022994
-0.0309034
-0.0401596
-0.0499222
-0.0606088
-0.071593
-0.082886
-0.0942057
-0.10526
-0.116167
-0.126219
-0.135922
-0.14415
-0.151586
-0.157059
-0.161198
-0.16324
-0.163767
-0.16388
0.149388
0.148685
0.147183
0.143525
0.13749
0.130195
0.121712
0.112708
0.103504
0.0944123
0.0855964
0.0772727
0.0694434
0.062385
0.0559413
0.0504277
0.0455489
0.0415654
0.0380905
0.0353086
0.0328129
0.0307382
0.0287143
0.0268954
0.024977
0.0232469
0.0214852
0.0199369
0.0184295
0.0171847
0.0160407
0.015189
0.0144895
0.0140959
0.0138947
0.0139964
0.0143176
0.0149226
0.0157598
0.0168466
0.0181632
0.0196816
0.0214122
0.0232854
0.0253382
0.0274648
0.0297242
0.0319821
0.0343137
0.0365644
0.0388202
0.0409154
0.0429407
0.04473
0.0463728
0.0477127
0.048833
0.0495974
0.0500783
0.0501683
0.0499253
0.0492784
0.0482678
0.0468644
0.045088
0.0429542
0.0404605
0.0376671
0.0345482
0.0312053
0.0275893
0.0238376
0.0198784
0.015877
0.0117178
0.00757224
0.00326657
-0.00127755
-0.00642252
-0.0120672
-0.0187234
-0.0260806
-0.0345554
-0.0437495
-0.0538587
-0.0644681
-0.0755173
-0.0867275
-0.097828
-0.108801
-0.119224
-0.129203
-0.138275
-0.146445
-0.153338
-0.158774
-0.162733
-0.164759
-0.165283
-0.165395
0.152325
0.151624
0.150563
0.146867
0.140749
0.133473
0.124681
0.115741
0.106195
0.0971679
0.0879026
0.0796287
0.0712205
0.0641971
0.0571216
0.0516286
0.0461951
0.0422212
0.0383289
0.0355501
0.0327272
0.0306529
0.0282628
0.0264445
0.0240274
0.0222973
0.0200229
0.0184745
0.0165032
0.0152582
0.0137135
0.0128615
0.0118404
0.0114464
0.0110138
0.011115
0.0113013
0.0119057
0.012706
0.0137921
0.0151664
0.0166841
0.0185594
0.0204317
0.0227044
0.0248302
0.0273699
0.029627
0.0322814
0.0345315
0.0371328
0.0392274
0.0415996
0.0433885
0.0453578
0.0466976
0.0481033
0.0488677
0.0495736
0.0496641
0.04957
0.0489238
0.0479748
0.0465724
0.0447643
0.0426318
0.0400135
0.0372216
0.0338915
0.0305504
0.0266488
0.0228988
0.0185965
0.0145969
0.0100814
0.00593772
0.00135859
-0.00318016
-0.00865265
-0.0142785
-0.021494
-0.0288146
-0.0379589
-0.0470955
-0.0578229
-0.068355
-0.0797574
-0.0908805
-0.101983
-0.112862
-0.123007
-0.132892
-0.141499
-0.149608
-0.155967
-0.161381
-0.164907
-0.166957
-0.16696
-0.167072
0.155068
0.15436
0.153316
0.149634
0.143574
0.136341
0.127623
0.118654
0.109178
0.0999577
0.0907491
0.0820878
0.0737251
0.0661496
0.0590989
0.0529684
0.0475376
0.0429296
0.0390268
0.0356667
0.0328242
0.030195
0.0277768
0.0253633
0.0229178
0.0205463
0.0182735
0.0161167
0.0141468
0.0123576
0.010814
0.00950322
0.00848278
0.00773192
0.00729959
0.00715731
0.00734354
0.00782351
0.00862327
0.00970388
0.0110773
0.0127026
0.0145766
0.0166586
0.0189297
0.0213511
0.023889
0.0265077
0.0291603
0.031815
0.0344145
0.0369318
0.0393023
0.0415061
0.0434741
0.0451956
0.0466004
0.0476901
0.0483956
0.0487347
0.0486407
0.0481509
0.0472026
0.0458541
0.0440473
0.0418623
0.0392458
0.0362977
0.0329699
0.0293779
0.025479
0.0213983
0.017099
0.0127083
0.008196
0.0036178
-0.000945645
-0.00595098
-0.0114189
-0.0175867
-0.0247999
-0.0326744
-0.0417941
-0.0513425
-0.0620135
-0.0726885
-0.0840062
-0.094966
-0.105978
-0.116431
-0.126487
-0.13577
-0.144286
-0.151743
-0.158048
-0.162994
-0.166487
-0.168394
-0.16839
-0.168515
0.15803
0.157315
0.156266
0.152622
0.146625
0.139439
0.1308
0.1218
0.112402
0.102969
0.0938281
0.0847432
0.0764355
0.068258
0.0612477
0.0544159
0.0490098
0.0436946
0.0398028
0.0357819
0.0329414
0.0296707
0.027252
0.0241634
0.0217196
0.0186554
0.0163844
0.0135707
0.0116022
0.00922546
0.00768303
0.00587677
0.0048571
0.00372087
0.00328888
0.00288366
0.00306975
0.00341539
0.00421454
0.00528929
0.00666167
0.00840327
0.0102758
0.0125842
0.0148536
0.0175942
0.0201302
0.0231394
0.02579
0.0288817
0.0314792
0.0344529
0.0368217
0.0394735
0.04144
0.0435738
0.0449775
0.0464186
0.0471235
0.0477311
0.0476373
0.0473163
0.0463687
0.0450784
0.043273
0.0410314
0.0384168
0.0353001
0.0319748
0.0281118
0.0242159
0.0197779
0.0154819
0.010669
0.00616003
0.00111265
-0.00344723
-0.00898353
-0.0144352
-0.0212198
-0.0283933
-0.0368884
-0.0459436
-0.0559507
-0.0665374
-0.0773706
-0.0885941
-0.0993737
-0.110292
-0.120273
-0.130241
-0.138855
-0.147296
-0.154047
-0.160294
-0.164737
-0.168193
-0.169927
-0.169934
-0.170073
0.160759
0.160048
0.158185
0.154625
0.149078
0.142011
0.133857
0.124927
0.1157
0.106286
0.0970599
0.0879457
0.0793417
0.0710911
0.0635917
0.0566491
0.0505858
0.0451349
0.0404949
0.0363239
0.0327155
0.0292825
0.026117
0.0228694
0.0197293
0.0165344
0.0135972
0.0106593
0.00806739
0.00557954
0.00349142
0.00159132
0.000123467
-0.00108592
-0.00185333
-0.00230871
-0.00233543
-0.00201579
-0.00130294
-0.000230034
0.00118028
0.00294307
0.00496949
0.00731972
0.00984498
0.012645
0.01552
0.0186021
0.0216521
0.0248255
0.0278574
0.0309168
0.0337283
0.0364642
0.0388554
0.0410669
0.0428524
0.0443599
0.0453816
0.0460403
0.0461803
0.045892
0.0450822
0.043804
0.042033
0.039782
0.037097
0.03395
0.0304539
0.0265416
0.0223848
0.0178813
0.0132498
0.00835908
0.00342897
-0.00170504
-0.00683317
-0.0124889
-0.0185738
-0.0254763
-0.0331447
-0.0417254
-0.0510326
-0.0610669
-0.0715491
-0.0823363
-0.0931571
-0.103821
-0.114154
-0.123969
-0.133218
-0.141638
-0.14929
-0.155848
-0.161401
-0.165683
-0.168762
-0.170428
-0.171207
-0.171346
0.16433
0.163623
0.162501
0.158925
0.153108
0.146096
0.137623
0.128789
0.119296
0.109966
0.100318
0.091273
0.0820155
0.0738163
0.0654936
0.0585833
0.0516471
0.0462108
0.0407383
0.0365701
0.0321813
0.0287467
0.0247342
0.0214877
0.0173493
0.0141571
0.0102348
0.00729956
0.00381575
0.0013301
-0.00153283
-0.00343126
-0.00552786
-0.00673618
-0.00796451
-0.0084195
-0.00872569
-0.00840633
-0.00778655
-0.00671459
-0.00521484
-0.0034536
-0.00116766
0.0011805
0.00411486
0.00691239
0.0103185
0.0133979
0.0170675
0.0202381
0.0239402
0.0269968
0.0304887
0.0332222
0.0362629
0.0384725
0.0408376
0.0423438
0.0438403
0.0444985
0.0449798
0.0446918
0.0440693
0.0427922
0.0410438
0.0387948
0.0359671
0.0328229
0.0290286
0.0251197
0.0205287
0.0160292
0.0108551
0.00596869
0.000449856
-0.00467963
-0.0103282
-0.0159745
-0.0226076
-0.0294769
-0.0378049
-0.0463248
-0.0562003
-0.0661477
-0.0769203
-0.0876038
-0.0983205
-0.108877
-0.118738
-0.128451
-0.136994
-0.145324
-0.152218
-0.158703
-0.163639
-0.16791
-0.170714
-0.17241
-0.172653
-0.17279
0.167628
0.166917
0.165805
0.162274
0.156543
0.149621
0.141264
0.132455
0.123044
0.113569
0.103964
0.0945385
0.0852987
0.0764837
0.0681482
0.060433
0.0534533
0.0470961
0.0415612
0.0364253
0.0319628
0.0275337
0.0234345
0.0191387
0.014914
0.0106333
0.00665798
0.00270081
-0.000830807
-0.00422657
-0.00713113
-0.00979377
-0.0119243
-0.0137234
-0.0149768
-0.0158295
-0.0161512
-0.016026
-0.0154118
-0.0143295
-0.0128257
-0.0108582
-0.00855918
-0.00582717
-0.00287168
0.00046061
0.00389443
0.00762554
0.0113276
0.0152273
0.0189648
0.0227847
0.0263127
0.0297995
0.0328749
0.0357843
0.0381807
0.0402937
0.0418162
0.0429541
0.0434545
0.0434928
0.0428816
0.0417602
0.0400144
0.0377436
0.0349099
0.0315695
0.0277611
0.0234953
0.0188831
0.0138885
0.00868754
0.00319844
-0.00234893
-0.00814889
-0.0138248
-0.0201278
-0.0267832
-0.0342438
-0.0425911
-0.0515201
-0.0613806
-0.0714224
-0.0821313
-0.0925532
-0.103164
-0.113171
-0.122917
-0.131899
-0.140325
-0.147855
-0.154605
-0.160384
-0.165198
-0.169025
-0.171786
-0.173422
-0.173667
-0.173872
0.170924
0.170215
0.168648
0.165234
0.159781
0.153015
0.144944
0.136203
0.126941
0.117376
0.107806
0.0981033
0.0888035
0.0795236
0.0710257
0.0626801
0.0554252
0.0483196
0.0424151
0.0364636
0.031576
0.0262856
0.0217576
0.0165781
0.0119503
0.00682621
0.00246037
-0.00228853
-0.00618319
-0.0102841
-0.0135031
-0.0167579
-0.0191428
-0.0213998
-0.0228387
-0.0239998
-0.0244323
-0.0244578
-0.0238775
-0.0227874
-0.0212417
-0.0191148
-0.0167032
-0.0136741
-0.0105437
-0.00679745
-0.00313796
0.00109775
0.00506242
0.00952664
0.0135482
0.0179593
0.0217764
0.0258466
0.0292003
0.0326519
0.0353007
0.0378838
0.0396196
0.0411294
0.0417931
0.0420846
0.0415787
0.0405786
0.0388756
0.0365884
0.0337336
0.030242
0.0263508
0.0218093
0.0170579
0.0116808
0.00629277
0.000337599
-0.00544736
-0.0117659
-0.0177444
-0.0245986
-0.0315062
-0.0394625
-0.0478921
-0.057148
-0.0669094
-0.0770124
-0.0874543
-0.0976433
-0.107903
-0.117442
-0.126829
-0.135202
-0.143277
-0.15015
-0.156574
-0.16176
-0.166332
-0.169777
-0.172397
-0.173935
-0.174563
-0.174814
0.174576
0.173871