/*--------------------------------*- C++ -*----------------------------------*\
| =========                 |                                                 |
| \\      /  F ield         | OpenFOAM: The Open Source CFD Toolbox           |
|  \\    /   O peration     | Version:  v2106                                 |
|   \\  /    A nd           | Website:  www.openfoam.com                      |
|    \\/     M anipulation  |                                                 |
\*---------------------------------------------------------------------------*/
FoamFile
{
    version     2.0;
    format      ascii;
    arch        "LSB;label=32;scalar=64";
    class       volScalarField;
    location    "0";
    object      expGpCoeffs26;
}
// * * * * * * * * * * * * * * * * * * * * * * * * * * * * * * * * * * * * * //

dimensions      [0 0 0 0 0 0 0];

internalField   nonuniform List<scalar> 
8000
(
0.00165528
0.00204531
0.00296419
0.00452453
0.00688039
0.00989041
0.0130778
0.0163509
0.018827
0.0205199
0.0210568
0.0204361
0.0189256
0.0165672
0.013924
0.0110275
0.00838848
0.00600323
0.00407657
0.00261015
0.00152697
0.000835261
0.000383007
0.000177079
0.00012818
0.000242387
0.000488254
0.000863937
0.00133597
0.00190036
0.00250242
0.00313664
0.00373762
0.00429954
0.00476162
0.00511917
0.00533136
0.00539586
0.00530308
0.00505373
0.00467324
0.00416532
0.00358525
0.00293886
0.00229799
0.00166922
0.00112289
0.000664594
0.000345036
0.000167379
0.00014935
0.000290853
0.000571848
0.000988996
0.0014897
0.00206826
0.00265341
0.00323856
0.00375254
0.00418967
0.00449748
0.00467262
0.00469478
0.0045638
0.0042963
0.00389526
0.00340926
0.00284364
0.00226596
0.00168248
0.0011625
0.000711669
0.000384205
0.000183802
0.000139358
0.000252138
0.000550085
0.00102588
0.00176537
0.00275848
0.00413464
0.00588318
0.008036
0.0105902
0.0133107
0.0162004
0.0187691
0.0209871
0.0223459
0.0228082
0.0221435
0.0203545
0.0178006
0.0144642
0.0111975
0.00808369
0.00560876
0.00392243
0.00290812
0.00246117
0.00162388
0.00201382
0.00290135
0.0044608
0.00682445
0.00983369
0.0131065
0.016382
0.0189182
0.0206147
0.0211478
0.0205296
0.018975
0.0166171
0.0139213
0.0110241
0.00835373
0.00596749
0.00403966
0.00257275
0.0015023
0.000810482
0.000368646
0.000162727
0.000116714
0.000230907
0.000478658
0.000854293
0.0013304
0.00189472
0.00250244
0.00313657
0.00374351
0.00430537
0.00477227
0.00512977
0.00534438
0.00540887
0.00531537
0.00506605
0.00468176
0.00417391
0.00358783
0.00294152
0.00229391
0.00166522
0.00111315
0.00065491
0.000332098
0.000154465
0.000136539
0.000278023
0.000562459
0.000979554
0.00148613
0.00206462
0.00265652
0.0032416
0.00376144
0.00419851
0.00450976
0.00468487
0.00470719
0.00457624
0.00430563
0.00390465
0.00341314
0.0028476
0.00226344
0.00168004
0.00115425
0.000703474
0.000372214
0.000171837
0.000126079
0.000238845
0.000534107
0.00100986
0.00173976
0.00273296
0.0040998
0.00584881
0.00800706
0.0105622
0.0133148
0.0162052
0.0188223
0.0210396
0.0224374
0.0228973
0.022235
0.0204425
0.0178322
0.0144934
0.0111435
0.00803037
0.005544
0.00385857
0.00287203
0.00242518
0.00158996
0.00197982
0.00283348
0.00439198
0.00676404
0.00977243
0.0131374
0.0164156
0.0190168
0.020717
0.0212462
0.0206304
0.0190283
0.0166711
0.0139185
0.0110204
0.00831621
0.0059289
0.00399981
0.00253236
0.00147566
0.000783723
0.000353139
0.000147229
0.000104333
0.00021851
0.000468296
0.000843879
0.00132439
0.00188863
0.00250245
0.0031365
0.00374988
0.00431166
0.00478377
0.00514122
0.00535844
0.00542292
0.00532863
0.00507935
0.00469096
0.00418318
0.00359061
0.00294439
0.00228951
0.0016609
0.00110263
0.000644452
0.000318128
0.000140519
0.000122704
0.000264169
0.00055232
0.000969358
0.00148228
0.00206069
0.00265988
0.00324488
0.00377104
0.00420805
0.00452302
0.00469811
0.0047206
0.00458967
0.00431571
0.00391478
0.00341733
0.00285186
0.00226073
0.00167741
0.00114534
0.000694625
0.000359265
0.000158916
0.00011174
0.00022449
0.000516853
0.000992561
0.00171211
0.0027054
0.00406219
0.00581169
0.00797582
0.0105319
0.0133194
0.0162104
0.0188798
0.0210964
0.0225361
0.0229936
0.0223339
0.0205376
0.0178662
0.0145248
0.0110852
0.00797279
0.00547407
0.00378961
0.00283306
0.00238632
0.00155334
0.0019431
0.0027602
0.00431767
0.00669881
0.00970629
0.0131709
0.0164518
0.0191232
0.0208275
0.0213524
0.0207394
0.0190859
0.0167294
0.0139155
0.0110165
0.00827569
0.00588722
0.00395678
0.00248875
0.0014469
0.000754828
0.000336394
0.000130493
9.09628e-05
0.000205123
0.000457106
0.000832634
0.00131789
0.00188206
0.00250246
0.00313642
0.00375676
0.00431845
0.00479619
0.00515359
0.00537362
0.00543808
0.00534296
0.00509372
0.00470089
0.00419319
0.00359362
0.00294749
0.00228475
0.00165624
0.00109127
0.00063316
0.000303043
0.00012546
0.000107765
0.000249209
0.000541372
0.000958347
0.00147812
0.00205644
0.00266351
0.00324842
0.00378141
0.00421836
0.00453733
0.0047124
0.00473508
0.00460417
0.0043266
0.00392573
0.00342185
0.00285647
0.0022578
0.00167457
0.00113572
0.000685069
0.000345282
0.000144963
9.62565e-05
0.00020899
0.000498222
0.000973882
0.00168225
0.00267564
0.00402156
0.00577161
0.00794209
0.0104992
0.0133242
0.0162159
0.0189419
0.0211576
0.0226428
0.0230975
0.0224406
0.0206403
0.017903
0.0145587
0.0110222
0.00791062
0.00539856
0.00371515
0.00279099
0.00234435
0.00151379
0.00190344
0.00268106
0.00423428
0.00662837
0.00963487
0.013207
0.0164909
0.0192381
0.0209469
0.0214671
0.020857
0.0191481
0.0167923
0.0139122
0.0110122
0.00823194
0.00584222
0.00391031
0.00244166
0.00141584
0.000723627
0.000318312
0.000112422
7.65255e-05
0.000190667
0.000445024
0.00082049
0.00131088
0.00187496
0.00250248
0.00313633
0.00376418
0.00432578
0.0048096
0.00516694
0.00539001
0.00545447
0.00535844
0.00510923
0.00471162
0.004204
0.00359686
0.00295084
0.00227962
0.0016512
0.001079
0.000620966
0.000286753
0.000109199
9.16336e-05
0.000233055
0.00052955
0.000946458
0.00147362
0.00205185
0.00266743
0.00325224
0.00379261
0.00422949
0.0045528
0.00472783
0.00475072
0.00461982
0.00433835
0.00393754
0.00342674
0.00286145
0.00225463
0.00167149
0.00112532
0.000674751
0.000330184
0.000129897
7.95366e-05
0.000192252
0.000478103
0.000953711
0.00165001
0.00264351
0.0039777
0.00572833
0.00790566
0.0104639
0.0133295
0.016222
0.0190089
0.0212237
0.022758
0.0232097
0.0225558
0.0207511
0.0179427
0.0145954
0.0109542
0.00784348
0.00531208
0.00363474
0.00274555
0.00229904
0.00147175
0.00185512
0.00261748
0.00412484
0.00653928
0.00949687
0.0132222
0.0164755
0.0193574
0.0210625
0.0215823
0.0209726
0.0192115
0.016862
0.0139102
0.0110105
0.00818469
0.00579362
0.00386013
0.0023908
0.00138229
0.000689934
0.000298786
9.29073e-05
6.3385e-05
0.000176229
0.000432875
0.000807976
0.00130332
0.00186784
0.00250223
0.00313708
0.00377218
0.00433496
0.00482465
0.00518299
0.00540899
0.00547399
0.00537708
0.00512783
0.0047256
0.0042174
0.00360294
0.00295601
0.00227659
0.00164725
0.00106806
0.000609394
0.000271229
9.35553e-05
7.61155e-05
0.000218022
0.000518697
0.000936575
0.00147088
0.00205032
0.00267411
0.00326004
0.00380754
0.00424511
0.0045726
0.00474773
0.00477081
0.00463932
0.00435408
0.00395216
0.00343467
0.00286805
0.00225337
0.00166908
0.00111584
0.000664675
0.000315492
0.000115466
6.35085e-05
0.000177465
0.000456378
0.00093193
0.00161519
0.00260881
0.00393033
0.00568159
0.00786632
0.0104257
0.0133375
0.0162295
0.0190802
0.02129
0.0228694
0.0233218
0.0226664
0.020866
0.0179251
0.0146099
0.01081
0.0077512
0.00518825
0.00355625
0.00268702
0.0022467
0.00142777
0.00179181
0.00255371
0.00400666
0.006419
0.00932142
0.0130433
0.0162992
0.0191771
0.0209591
0.0214762
0.020976
0.0192142
0.0169512
0.0140005
0.0111325
0.00830125
0.00588268
0.00395195
0.00243638
0.00143555
0.000708698
0.000325438
9.81502e-05
7.18551e-05
0.000171476
0.000428074
0.0008
0.00129525
0.00186527
0.00249954
0.00314567
0.00378065
0.00435654
0.00484613
0.0052154
0.00544136
0.00551204
0.00541515
0.00516497
0.00476282
0.00424772
0.00363338
0.00297597
0.00229668
0.00165671
0.00107763
0.000611659
0.000273558
9.44131e-05
7.69765e-05
0.000224058
0.000524677
0.000953245
0.00148745
0.00208031
0.00270398
0.00330239
0.00384979
0.00429536
0.00462278
0.00479904
0.00482212
0.00468436
0.00439917
0.00398514
0.00346774
0.00288649
0.00227192
0.00167478
0.00112165
0.000663664
0.000314546
0.000116891
6.49434e-05
0.000191918
0.000466642
0.000963204
0.00163807
0.00266412
0.00397869
0.0057697
0.00795239
0.0105293
0.0134458
0.0162991
0.0191492
0.0212722
0.0228529
0.0232006
0.0225484
0.0206751
0.0177386
0.0144197
0.0106236
0.00761508
0.00505453
0.00347336
0.0026047
0.00218292
0.00138027
0.00172344
0.00248485
0.00387904
0.00628912
0.00913196
0.01285
0.0161088
0.0189823
0.0208476
0.0213616
0.0209797
0.0192171
0.0170475
0.0140979
0.0112642
0.00843493
0.00599689
0.00406788
0.00250978
0.00150982
0.000743944
0.000360904
0.000107291
8.10015e-05
0.000166343
0.000422889
0.000791386
0.00128654
0.0018625
0.00249664
0.00315494
0.0037898
0.00437983
0.00486933
0.00525039
0.00547631
0.00555313
0.00545626
0.00520508
0.00480301
0.00428046
0.00366625
0.00299752
0.00231837
0.00166693
0.00108796
0.000614105
0.000276073
9.53393e-05
7.79062e-05
0.000230577
0.000531135
0.000971247
0.00150535
0.00211269
0.00273624
0.00334812
0.00389541
0.00434961
0.00467698
0.00485445
0.00487752
0.004733
0.00444786
0.00402075
0.00350345
0.0029064
0.00229196
0.00168094
0.00112792
0.000662572
0.000313525
0.00011843
6.64928e-05
0.000207525
0.000482193
0.00100464
0.00167921
0.00274122
0.00405487
0.00588078
0.00806185
0.0106478
0.0135627
0.0163743
0.0192238
0.0212531
0.0228349
0.0230697
0.0224209
0.020469
0.0175371
0.0142142
0.0104223
0.00746809
0.00491013
0.00338385
0.00251582
0.00211406
0.00132898
0.00164961
0.00241049
0.00374123
0.00614887
0.00892738
0.0126414
0.0159032
0.0187721
0.0207271
0.0212379
0.0209836
0.0192202
0.0171516
0.0142031
0.0114063
0.00857928
0.00612022
0.00419307
0.00258904
0.00159002
0.000782003
0.000399201
0.000117161
9.08781e-05
0.000160801
0.000417291
0.000782085
0.00127713
0.00185951
0.00249351
0.00316496
0.00379967
0.00440499
0.00489438
0.00528818
0.00551405
0.00559749
0.00550065
0.00524839
0.00484641
0.00431582
0.00370174
0.00302079
0.00234179
0.00167796
0.00109912
0.000616747
0.000278788
9.63394e-05
7.89102e-05
0.000237616
0.000538108
0.000990685
0.00152467
0.00214766
0.00277107
0.00339751
0.00394467
0.0044082
0.0047355
0.00491429
0.00493735
0.00478551
0.00450044
0.0040592
0.00354202
0.0029279
0.00231359
0.00168759
0.00113469
0.000661393
0.000312423
0.000120092
6.8166e-05
0.000224378
0.000498985
0.00104939
0.00172364
0.00282448
0.00413713
0.00600072
0.00818005
0.0107758
0.0136889
0.0164555
0.0193043
0.0212324
0.0228156
0.0229284
0.0222833
0.0202465
0.0173196
0.0139924
0.0102049
0.00730936
0.00475421
0.0032872
0.00241983
0.00203969
0.0012736
0.00156989
0.0023302
0.00359243
0.00599742
0.00870645
0.012416
0.0156812
0.018545
0.020597
0.0211042
0.0209879
0.0192235
0.0172639
0.0143168
0.0115599
0.00873515
0.0062534
0.00432825
0.00267463
0.00167662
0.000823102
0.000440556
0.00012782
0.000101543
0.000154816
0.000411245
0.000772041
0.00126697
0.00185627
0.00249013
0.00317577
0.00381034
0.00443216
0.00492143
0.00532899
0.0055548
0.00564541
0.00554858
0.00529516
0.00489327
0.00435399
0.00374006
0.00304592
0.00236708
0.00168987
0.00111117
0.000619599
0.000281721
9.74194e-05
7.99943e-05
0.000245217
0.000545638
0.00101168
0.00154553
0.00218543
0.00280869
0.00345083
0.00399787
0.00447147
0.00479869
0.0049789
0.00500196
0.00484222
0.00455722
0.00410072
0.00358366
0.00295112
0.00233695
0.00169477
0.001142
0.000660121
0.000311232
0.000121886
6.99727e-05
0.000242577
0.000517118
0.00109771
0.00177161
0.00291438
0.00422595
0.00613024
0.00830769
0.0109141
0.0138253
0.0165431
0.0193912
0.02121
0.0227947
0.0227758
0.0221346
0.0200062
0.0170847
0.0137528
0.00997015
0.00713796
0.00458583
0.00318283
0.00231619
0.00195939
0.00121379
0.00148381
0.00224349
0.00343174
0.00583388
0.00846789
0.0121727
0.0154414
0.0182999
0.0204565
0.02096
0.0209925
0.0192272
0.0173852
0.0144395
0.0117257
0.00890347
0.00639721
0.00447422
0.00276705
0.00177014
0.000867482
0.000485213
0.000139329
0.00011306
0.000148354
0.000404717
0.000761195
0.001256
0.00185278
0.00248647
0.00318745
0.00382185
0.00446149
0.00495064
0.00537306
0.00559881
0.00569714
0.00560034
0.00534566
0.00494388
0.00439522
0.00378145
0.00307306
0.00239439
0.00170273
0.00112418
0.000622679
0.000284887
9.85857e-05
8.1165e-05
0.000253425
0.000553769
0.00103434
0.00156806
0.0022262
0.00284931
0.00350842
0.00405531
0.00453979
0.00486692
0.00504867
0.00507173
0.00490346
0.00461853
0.00414556
0.00362863
0.00297619
0.00236218
0.00170253
0.0011499
0.000658746
0.000309947
0.000123824
7.19237e-05
0.000262228
0.000536698
0.00114989
0.00182341
0.00301147
0.00432187
0.0062701
0.00844552
0.0110634
0.0139725
0.0166378
0.0194851
0.0211859
0.0227722
0.022611
0.0219741
0.0197467
0.016831
0.0134942
0.00971667
0.00695287
0.00440402
0.00307012
0.00220426
0.00187268
0.00114921
0.00139085
0.00214986
0.00325822
0.00565729
0.00821029
0.0119099
0.0151825
0.0180351
0.0203048
0.0208042
0.0209975
0.0192311
0.0175162
0.014572
0.0119047
0.00908522
0.00655251
0.00463185
0.00286685
0.00187113
0.000915405
0.000533435
0.000151758
0.000125496
0.000141375
0.000397668
0.000749484
0.00124415
0.00184901
0.00248253
0.00320006
0.00383429
0.00449317
0.00498218
0.00542064
0.00564633
0.00575301
0.00565624
0.0054002
0.00499853
0.00443974
0.00382613
0.00310236
0.00242388
0.00171662
0.00113823
0.000626005
0.000288306
9.9845e-05
8.24292e-05
0.000262288
0.00056255
0.00105882
0.00159239
0.00227024
0.00289317
0.0035706
0.00411734
0.00461357
0.00494061
0.00512401
0.00514706
0.00496959
0.00468474
0.00419397
0.00367719
0.00300326
0.00238942
0.00171091
0.00115843
0.000657262
0.000308559
0.000125917
7.40305e-05
0.000283449
0.000557842
0.00120624
0.00187934
0.0031163
0.00442545
0.00642112
0.00859436
0.0112246
0.0141314
0.01674
0.0195865
0.0211598
0.0227478
0.0224331
0.0218008
0.0194665
0.0165571
0.0132148
0.00944295
0.00675301
0.00420768
0.00294842
0.00208341
0.00177905
0.00106606
0.00129212
0.00201076
0.00310432
0.00536299
0.00789923
0.0114673
0.0147702
0.0176248
0.0199811
0.0205645
0.020878
0.0192459
0.0176213
0.0147775
0.0121465
0.00933912
0.00679868
0.00483772
0.00303766
0.00199906
0.00100234
0.000596311
0.000184751
0.000145758
0.000148174
0.00039355
0.000742097
0.0012346
0.00184499
0.0024832
0.00321213
0.0038551
0.00452725
0.00502578
0.00547532
0.00570838
0.00582083
0.00572737
0.00547042
0.00506755
0.0045018
0.00388346
0.0031491
0.00246439
0.00174638
0.00116272
0.000643115
0.000303209
0.000113276
9.78791e-05
0.000282982
0.000589322
0.00109642
0.00163867
0.00233011
0.00296199
0.00365205
0.00420542
0.00470974
0.00503903
0.00522356
0.00524356
0.00505972
0.00476707
0.00426403
0.00373676
0.003048
0.00242408
0.00173255
0.00117387
0.00066581
0.000317811
0.000137601
9.55433e-05
0.000318193
0.000603141
0.00128093
0.00197624
0.00325025
0.00459716
0.00661954
0.00882292
0.011451
0.0143356
0.0169008
0.019646
0.0211279
0.0225901
0.02216
0.0214507
0.0190342
0.0161214
0.0127466
0.0090986
0.00641722
0.00400784
0.00275827
0.00194446
0.00165492
0.000961508
0.00118739
0.00185839
0.00294984
0.00499989
0.00752741
0.0107904
0.0140742
0.0169148
0.0192515
0.0201644
0.020467
0.0192814
0.0176565
0.0151467
0.0125228
0.00981685
0.00728469
0.00522791
0.00343308
0.00223321
0.00123842
0.000702753
0.00029146
0.000180878
0.000183293
0.000395877
0.000744311
0.00123055
0.00184075
0.00249348
0.00322218
0.00389188
0.00456382
0.00509135
0.00554075
0.00579617
0.00590858
0.00582508
0.00556821
0.0051615
0.00459593
0.00396295
0.00322882
0.00252492
0.00180714
0.00120722
0.000687784
0.000341033
0.000151161
0.000141845
0.000326888
0.000651737
0.00115867
0.00172743
0.00241865
0.00307788
0.00376772
0.00434141
0.00484558
0.00518185
0.00536632
0.00537711
0.00519333
0.00487701
0.00437413
0.0038149
0.00312636
0.00247165
0.00178035
0.0012026
0.000694712
0.000348633
0.000168481
0.000156053
0.000378631
0.000733634
0.00141104
0.00222836
0.00350025
0.00498295
0.00700023
0.00926015
0.0118809
0.0146335
0.0171934
0.0196024
0.0210865
0.0221229
0.0217052
0.0206852
0.0182894
0.0153868
0.0120322
0.00867348
0.00600222
0.00379629
0.0025496
0.00178486
0.00149559
0.000842396
0.00106809
0.00159031
0.00268018
0.00455236
0.00707166
0.0100594
0.0133227
0.0161482
0.0184636
0.0197323
0.0200232
0.0193197
0.0176944
0.0155455
0.0129291
0.0103327
0.00780951
0.00564925
0.00386006
0.00248604
0.00149335
0.000817693
0.00040669
0.000218802
0.000221216
0.000398389
0.000746702
0.00122619
0.00183618
0.00250458
0.00323302
0.00393161
0.00460331
0.00516216
0.0056114
0.00589097
0.00600334
0.00593059
0.00567381
0.00526294
0.00469757
0.00404878
0.00331491
0.00259028
0.00187275
0.00125527
0.000736019
0.000381876
0.00019207
0.00018932
0.000374299
0.000719136
0.00122589
0.00182328
0.00251425
0.00320302
0.00389262
0.00448827
0.00499226
0.00533607
0.00552047
0.00552132
0.0053376
0.00499572
0.00449302
0.00389928
0.00321098
0.00252302
0.00183196
0.00123364
0.00072592
0.000381916
0.000201826
0.000221394
0.000443894
0.000874546
0.00155154
0.00250062
0.00377022
0.00539953
0.00741132
0.0097323
0.0123451
0.0149551
0.0175093
0.0195554
0.0210418
0.0216185
0.021214
0.0198585
0.0174851
0.0145936
0.0112607
0.00816271
0.00550123
0.00346048
0.00221617
0.00160458
0.00131558
0.000613761
0.000839114
0.00111229
0.00219566
0.00375133
0.00624956
0.00927754
0.012519
0.0156986
0.0180033
0.0197538
0.0200459
0.0197159
0.0180995
0.0160684
0.0134625
0.0107772
0.00826118
0.00593309
0.00414728
0.00262304
0.00163141
0.00085016
0.000439334
0.000176161
0.000178574
0.000328924
0.000677106
0.00117578
0.00178554
0.00250891
0.00323708
0.00400778
0.00467922
0.00530568
0.00575475
0.0060782
0.00619053
0.00612615
0.00586947
0.00543008
0.00486492
0.00415997
0.00342637
0.00263515
0.00191789
0.00124368
0.000724618
0.000341165
0.00015143
0.000156676
0.000341585
0.000731003
0.00123757
0.00190488
0.0025956
0.00336091
0.00405025
0.004708
0.0052118
0.00558574
0.00577007
0.00576006
0.00557641
0.00518487
0.00468235
0.00401327
0.00332523
0.00255703
0.00186623
0.00120612
0.000698597
0.000331373
0.00015135
0.000197191
0.000419608
0.000928433
0.00160512
0.00265975
0.00392805
0.00569551
0.00770375
0.0101623
0.0127683
0.0154267
0.0179718
0.0198726
0.0213522
0.0215602
0.0211567
0.0193468
0.0169856
0.0137602
0.0104501
0.00729693
0.00465763
0.00289603
0.00165929
0.00128164
0.000993106
0.000370957
0.000595527
0.000690349
0.00174241
0.00290069
0.0054042
0.00843333
0.0116511
0.0152479
0.0175415
0.0198142
0.0201083
0.0201659
0.0185596
0.0166424
0.0140479
0.0112389
0.0087307
0.00620405
0.00442186
0.00273917
0.00174868
0.00086808
0.000457445
0.000125623
0.000128035
0.000250034
0.000598074
0.00111889
0.0017284
0.00251317
0.00324105
0.00409182
0.00476299
0.00546426
0.00591315
0.00628495
0.00639723
0.00634172
0.00608514
0.00561366
0.00504873
0.00428103
0.00354773
0.00268223
0.00196526
0.00122774
0.000708894
0.000292645
0.000102988
0.000116916
0.00030175
0.000740545
0.00124691
0.00199183
0.00268226
0.00353263
0.00422169
0.00494856
0.00545215
0.0058598
0.00604406
0.00602232
0.00583875
0.0053924
0.00489009
0.00413758
0.00344982
0.00259259
0.00190207
0.00117313
0.000665812
0.000272146
9.21963e-05
0.000165963
0.00038829
0.000968267
0.00164463
0.00280032
0.00406723
0.00598364
0.00798808
0.010614
0.0132126
0.0159482
0.0184834
0.0202378
0.0217096
0.0215339
0.0211307
0.0188285
0.01648
0.0128604
0.00957498
0.00640292
0.00376013
0.00235884
0.00115014
0.000936748
0.000649032
0.000367958
0.000510896
0.000605158
0.0013978
0.00254858
0.004718
0.0077146
0.010803
0.0144184
0.0168845
0.0191985
0.019876
0.0199699
0.0187553
0.0168662
0.0145011
0.0116869
0.00920113
0.00664806
0.00475901
0.00305083
0.0019296
0.00103532
0.000519978
0.000187231
0.000116617
0.000236362
0.00055422
0.00107655
0.00169461
0.00248383
0.00324807
0.00410472
0.00482439
0.00553119
0.0060242
0.00639961
0.00653847
0.00648367
0.00622942
0.00575564
0.00516998
0.00439772
0.00362896
0.00275803
0.00200355
0.00126142
0.000716222
0.000297598
0.000102527
0.000117125
0.000320896
0.000763347
0.00130893
0.00205958
0.0027991
0.00365573
0.00438988
0.00512182
0.0056532
0.00606331
0.00624918
0.00622654
0.00601684
0.00556641
0.00501684
0.00425815
0.00351543
0.00265164
0.00191571
0.00118172
0.000655401
0.00025984
9.97159e-05
0.000175623
0.000461828
0.00104386
0.00181534
0.00298579
0.00436518
0.00630595
0.00838662
0.0110348
0.0135793
0.0163149
0.018607
0.0203317
0.0214234
0.0212141
0.0204496
0.0181109
0.0155999
0.0119644
0.00879575
0.00565597
0.00332054
0.00192857
0.000962769
0.000750549
0.000541246
0.00036472
0.000419508
0.000513166
0.00102568
0.00216835
0.003977
0.00695394
0.00988775
0.0134791
0.0161587
0.0184545
0.0195987
0.0196853
0.0189443
0.0170579
0.0149689
0.0121626
0.00970197
0.00715647
0.00513303
0.00342908
0.00213899
0.00124597
0.000596077
0.000263491
0.000107902
0.000227591
0.000510341
0.00103242
0.00166045
0.0024493
0.00325589
0.00411212
0.00488826
0.00559472
0.0061391
0.00651433
0.00668412
0.00662934
0.00637779
0.00590424
0.00529445
0.00452255
0.0037125
0.00284198
0.00204383
0.00130204
0.000726172
0.000307746
0.000106377
0.000120968
0.000346775
0.000789016
0.00138026
0.00213055
0.00292721
0.00378344
0.00457008
0.00530168
0.0058654
0.00627531
0.00646307
0.00644044
0.00620034
0.00575012
0.00514553
0.0043872
0.00358051
0.00271712
0.00192833
0.00119469
0.000646254
0.000250879
0.000113816
0.000189687
0.000550233
0.00113198
0.0020257
0.00319477
0.00471999
0.00665673
0.00883447
0.0114761
0.0139573
0.016687
0.0186865
0.0204111
0.0210426
0.020843
0.0196383
0.0173196
0.0146071
0.0109972
0.00796759
0.00484939
0.00284585
0.00146395
0.000760442
0.000549484
0.000424853
0.000361223
0.000320824
0.000413828
0.000623843
0.00175777
0.00317684
0.00613254
0.00889942
0.0124648
0.0153749
0.0176511
0.0192993
0.019378
0.0191484
0.0172649
0.015474
0.0126763
0.0102428
0.00770547
0.00553691
0.00383753
0.00236509
0.00147343
0.000678252
0.00034584
9.84915e-05
0.000218119
0.000462957
0.000984772
0.00162356
0.00241201
0.00326432
0.00412012
0.00495722
0.00566332
0.00626317
0.00663821
0.00684139
0.00678664
0.00653801
0.0060647
0.00542885
0.00465735
0.0038027
0.00293264
0.00208732
0.00134591
0.000736917
0.000318705
0.000110534
0.000125118
0.000374719
0.000816734
0.00145728
0.00220718
0.00306556
0.00392134
0.00476468
0.0054959
0.00609454
0.00650425
0.00669403
0.00667142
0.00639849
0.00594851
0.0052845
0.00452655
0.00365079
0.00278784
0.00194197
0.0012087
0.000636375
0.000241203
0.000129042
0.000204874
0.000645697
0.00122714
0.00225285
0.00342044
0.00510312
0.00703552
0.00931808
0.0119527
0.0143656
0.0170888
0.0187724
0.0204968
0.0206315
0.0204423
0.0187623
0.0164652
0.013535
0.00995287
0.0070733
0.0039784
0.00233326
0.000962232
0.000541961
0.000332366
0.000299168
0.000519421
0.00044807
0.000558725
0.000691689
0.00157789
0.0028369
0.00531799
0.0080013
0.0112412
0.0142283
0.0165398
0.0183809
0.0187997
0.0187732
0.0173417
0.0156739
0.0132005
0.0107825
0.00833089
0.00610333
0.00432314
0.00276866
0.00175538
0.000893525
0.00047192
0.000188854
0.000243684
0.000473643
0.000957441
0.00160021
0.00237417
0.00324403
0.00410374
0.00496433
0.00568565
0.00630693
0.0067012
0.00691734
0.00687994
0.00663254
0.0061712
0.00552542
0.0047598
0.00388805
0.00301935
0.00215592
0.00141424
0.000792533
0.000375331
0.000164586
0.000183348
0.000442139
0.000891619
0.00155117
0.00231012
0.00319227
0.00405571
0.00492087
0.00565513
0.00626718
0.00667304
0.00686356
0.0068299
0.00654426
0.00607833
0.00539137
0.00461737
0.00371496
0.00284246
0.00197461
0.00124539
0.000663945
0.000292484
0.000190078
0.000314157
0.000786149
0.00143947
0.00252562
0.00379043
0.00554419
0.00752307
0.00984854
0.0123686
0.0147508
0.0171486
0.0187038
0.0200022
0.0199415
0.0194388
0.0175789
0.0152497
0.0122489
0.00897045
0.00616894
0.00352822
0.00203437
0.000911577
0.000567402
0.000335825
0.000332562
0.000779123
0.000708098
0.000631024
0.000765797
0.00121273
0.00246559
0.00435148
0.00700869
0.00988142
0.0128323
0.0153466
0.0171577
0.0182138
0.0181723
0.0174408
0.0157737
0.0137595
0.0113508
0.00899551
0.00677661
0.00483714
0.00328687
0.00204338
0.00118239
0.000578825
0.000295929
0.000246311
0.000476132
0.00090999
0.00155237
0.00232371
0.00319305
0.00408362
0.00494369
0.00571137
0.00633228
0.00677079
0.0069868
0.00697841
0.00673115
0.00627768
0.00563228
0.00485537
0.00398414
0.00309329
0.00223038
0.00146715
0.000845818
0.000418392
0.000207773
0.000234113
0.00049275
0.000967749
0.00162691
0.002423
0.00330462
0.00420589
0.00507052
0.00583109
0.00644278
0.0068538
0.00704421
0.00699085
0.00670539
0.00619892
0.00551236
0.00468855
0.00378667
0.00287194
0.00200461
0.00125922
0.000678124
0.000332279
0.000229933
0.000431635
0.000903345
0.00171034
0.00279553
0.0042491
0.00599896
0.00808064
0.0103989
0.0127741
0.01515
0.0170799
0.0186381
0.0192712
0.0192285
0.018134
0.0163062
0.013789
0.0108264
0.00788882
0.0051161
0.00303285
0.00154844
0.000833023
0.000488903
0.000446122
0.000442738
0.0011114
0.00103641
0.000682153
0.000770138
0.000449087
0.00167532
0.00297446
0.00560507
0.0085628
0.0114791
0.0145751
0.0163678
0.0181688
0.0181227
0.0179492
0.0162919
0.0144342
0.0120368
0.00953171
0.00731997
0.00514255
0.00359525
0.00215431
0.00129402
0.000532619
0.000249643
0.000103312
0.000332826
0.000756993
0.00139891
0.00223464
0.00310344
0.00410183
0.00496143
0.00584254
0.00646315
0.00698541
0.00720136
0.00722324
0.00697618
0.00649312
0.00584812
0.00499371
0.004123
0.00313306
0.00227065
0.00141939
0.000798419
0.000323262
0.000112758
0.000148845
0.000407348
0.000949544
0.00160834
0.00251166
0.00339279
0.00441138
0.00527553
0.00612955
0.00674089
0.00719341
0.00738367
0.00730594
0.0070206
0.00642867
0.00574248
0.00479517
0.00389378
0.0028533
0.00198647
0.00115279
0.000572071
0.00020916
0.000106975
0.000379885
0.000851479
0.00179764
0.00288201
0.00451496
0.00626206
0.00854426
0.0108564
0.0133257
0.0156929
0.0174235
0.0189757
0.0190583
0.0190241
0.017237
0.0154305
0.012382
0.00945555
0.00643336
0.00368969
0.00212677
0.000669432
0.000654191
0.000353135
0.000573023
0.000573624
0.00168898
0.00152612
0.00117475
0.000903134
0.00058448
0.00116045
0.00244567
0.00445251
0.0073756
0.0100842
0.0131543
0.0152437
0.0170281
0.0176001
0.0174325
0.0163849
0.0145402
0.0124904
0.00998375
0.00781396
0.00562636
0.00394513
0.00249622
0.00146513
0.000706835
0.000280059
0.000133831
0.000275828
0.000699698
0.00131075
0.0021459
0.00303034
0.00402803
0.00493215
0.00581264
0.00648617
0.00700806
0.00726712
0.00728899
0.00706346
0.00658073
0.00593264
0.00507883
0.0041859
0.00319665
0.00230437
0.00145371
0.000808583
0.000333758
0.000115691
0.000151753
0.000424146
0.000965964
0.00165742
0.00256012
0.00348324
0.00450111
0.0054033
0.00625672
0.00688916
0.00734136
0.00752736
0.00744968
0.00713394
0.00654243
0.00580767
0.00486102
0.00390828
0.00286853
0.00196698
0.00113388
0.000553997
0.00019134
0.000139315
0.000412035
0.000987357
0.00193088
0.00314583
0.00478669
0.00662234
0.00891391
0.0111415
0.0136123
0.0156161
0.0173359
0.0183025
0.0183832
0.0177756
0.0160086
0.0139326
0.010913
0.00818017
0.00519465
0.00302696
0.00148157
0.000626992
0.000613026
0.00064959
0.000867763
0.000953195
0.00231268
0.00205493
0.00170986
0.00104675
0.000730682
0.000604464
0.00187466
0.00320792
0.00609831
0.00857844
0.0116114
0.0140299
0.0157854
0.0170358
0.0168541
0.0164778
0.014633
0.0129654
0.0104655
0.00834045
0.00615898
0.00432432
0.00287799
0.00165268
0.000894961
0.000312904
0.000166786
0.000214278
0.00063783
0.00121556
0.00205007
0.0029514
0.00394834
0.00490053
0.00578036
0.00651104
0.00703253
0.00733814
0.00735999
0.0071577
0.00667534
0.00602392
0.00517074
0.00425383
0.00326532
0.00234079
0.00149076
0.000819559
0.000345092
0.000118858
0.000154892
0.000442286
0.000983696
0.00171042
0.00261244
0.00358091
0.00459802
0.00554127
0.00639405
0.00704926
0.00750112
0.00768251
0.00760489
0.00725634
0.00666527
0.00587807
0.00493213
0.00392394
0.00288497
0.00194593
0.00111346
0.00053448
0.000172096
0.000174238
0.000446752
0.00113408
0.00207689
0.00344035
0.00507885
0.00701643
0.00930327
0.0114387
0.0139059
0.0155099
0.017234
0.0175554
0.0176542
0.0164173
0.0146821
0.0123072
0.00932712
0.00680703
0.00385704
0.00231132
0.000784849
0.000581163
0.000568575
0.000973517
0.00118604
0.00136307
0.00313104
0.00286006
0.00247436
0.00179135
0.00128961
0.00104456
0.00160788
0.0027955
0.00477563
0.00718017
0.00970023
0.0121499
0.0140137
0.0153714
0.0158061
0.015549
0.01447
0.0128775
0.0108986
0.00878627
0.00674867
0.00488096
0.0033378
0.0020675
0.00117484
0.000563389
0.000295848
0.00032518
0.000645274
0.00121622
0.0019693
0.00287327
0.00381597
0.00477673
0.00563226
0.00637341
0.00690008
0.00721441
0.00726681
0.00706912
0.00663516
0.00598354
0.00518655
0.00426565
0.00333005
0.00239995
0.0015895
0.000913747
0.000458422
0.000230779
0.000262772
0.000552844
0.00106915
0.00180216
0.00266446
0.00364098
0.00461305
0.00556355
0.00637602
0.00703515
0.00746007
0.00764047
0.0075549
0.00720029
0.00662221
0.00582547
0.0049119
0.00389374
0.00290274
0.00195714
0.00118382
0.000605399
0.000309622
0.00032215
0.0006683
0.00137666
0.00239745
0.00379504
0.00546695
0.00742645
0.0095221
0.0116374
0.0135829
0.015112
0.0161215
0.0163325
0.0158741
0.0145422
0.0127149
0.0103169
0.00781137
0.00536633
0.00326582
0.00185933
0.00101599
0.000928047
0.00111829
0.00154596
0.00178463
0.00197475
0.00430546
0.00403601
0.00346501
0.00277406
0.00134668
0.00111599
0.000572803
0.00173069
0.00301565
0.0053729
0.0078549
0.0102596
0.0127118
0.0140392
0.0153337
0.0150657
0.0146676
0.0130779
0.011367
0.00926089
0.00715848
0.00529486
0.00355494
0.00228603
0.0011854
0.000574485
0.0001656
0.000194906
0.000453884
0.00102433
0.00179152
0.00269469
0.00370455
0.00466447
0.00560939
0.00634989
0.00695675
0.00727081
0.00737005
0.00717253
0.00674091
0.00608986
0.00525447
0.00433438
0.00333612
0.00240683
0.0015329
0.000857739
0.000360984
0.000133542
0.000161405
0.000451223
0.00100365
0.00173601
0.00266443
0.00364009
0.004688
0.00563766
0.00651151
0.00717006
0.00762129
0.00780153
0.00769672
0.00734242
0.0067029
0.00590687
0.00490688
0.00388962
0.00281433
0.00186956