/*--------------------------------*- C++ -*----------------------------------*\
| =========                 |                                                 |
| \\      /  F ield         | OpenFOAM: The Open Source CFD Toolbox           |
|  \\    /   O peration     | Version:  v2106                                 |
|   \\  /    A nd           | Website:  www.openfoam.com                      |
|    \\/     M anipulation  |                                                 |
\*---------------------------------------------------------------------------*/
FoamFile
{
    version     2.0;
    format      ascii;
    arch        "LSB;label=32;scalar=64";
    class       volScalarField;
    location    "0";
    object      expGpCoeffs31;
}
// * * * * * * * * * * * * * * * * * * * * * * * * * * * * * * * * * * * * * //

dimensions      [0 0 0 0 0 0 0];

internalField   nonuniform List<scalar> 
8000
(
0.00209434
0.00204906
0.00191224
0.00165175
0.00128672
0.000870394
0.000528466
0.000260203
0.000116183
8.58177e-05
0.000133086
0.000254466
0.000405165
0.000582041
0.000756094
0.000927102
0.00108532
0.00123219
0.00137786
0.00152304
0.0016912
0.001882
0.00211593
0.00239197
0.00271138
0.00307582
0.00347882
0.00392008
0.00439913
0.00491594
0.00547123
0.00606488
0.00669658
0.00736612
0.00807204
0.00881399
0.00958921
0.0103972
0.0112337
0.012098
0.0129843
0.0138917
0.0148127
0.0157463
0.0166833
0.0176226
0.0185534
0.0194747
0.0203746
0.0212517
0.0220935
0.0228985
0.0236538
0.024358
0.0249983
0.0255735
0.0260715
0.0264912
0.0268223
0.0270638
0.0272081
0.0272545
0.0271988
0.0270408
0.0267805
0.0264183
0.0259588
0.0254028
0.0247597
0.0240306
0.0232291
0.0223567
0.0214299
0.0204506
0.0194649
0.0184793
0.0176589
0.0170093
0.0167244
0.0168015
0.0172484
0.0180561
0.019066
0.0202716
0.0214519
0.022604
0.0235336
0.0242323
0.0246137
0.0246747
0.0244099
0.0238216
0.0229447
0.0217539
0.0203572
0.0187096
0.0169786
0.0151976
0.013793
0.0129218
0.00209798
0.00205272
0.0019259
0.0016656
0.001286
0.000869536
0.000518146
0.000249419
0.000107998
7.73645e-05
0.000129167
0.000250478
0.000404428
0.000581336
0.000757031
0.000928102
0.0010861
0.001233
0.00137708
0.00152225
0.00168824
0.001879
0.00211201
0.002388
0.00270821
0.0030726
0.00347584
0.00391705
0.00439607
0.00491281
0.00546816
0.00606173
0.00669361
0.00736306
0.00806927
0.00881112
0.00958676
0.0103946
0.0112317
0.0120959
0.0129829
0.0138903
0.0148121
0.0157456
0.0166836
0.0176227
0.0185547
0.0194759
0.020377
0.021254
0.022097
0.0229019
0.0236585
0.0243626
0.0250041
0.0255792
0.0260783
0.0264979
0.0268299
0.0270714
0.0272162
0.0272626
0.0272071
0.0270491
0.0267887
0.0264265
0.0259663
0.0254103
0.0247661
0.0240371
0.0232341
0.0223618
0.0214334
0.0204542
0.0194618
0.0184763
0.0176347
0.0169853
0.0166897
0.0167671
0.0172241
0.0180322
0.0190588
0.0202647
0.0214646
0.0226167
0.0235588
0.0242571
0.0246409
0.0247012
0.0244354
0.023846
0.0229673
0.0217753
0.02037
0.0187215
0.0169749
0.015194
0.0137227
0.0128516
0.00210192
0.00205667
0.00194065
0.00168056
0.00128522
0.000868609
0.000507003
0.000237773
9.91601e-05
6.82364e-05
0.000124936
0.000246171
0.000403631
0.000580575
0.000758043
0.000929182
0.00108694
0.00123388
0.00137624
0.0015214
0.00168504
0.00187576
0.00210778
0.00238373
0.00270478
0.00306912
0.00347263
0.00391378
0.00439276
0.00490943
0.00546485
0.00605834
0.0066904
0.00735975
0.00806627
0.00880802
0.00958411
0.0103919
0.0112295
0.0120936
0.0129814
0.0138886
0.0148114
0.0157448
0.0166839
0.0176229
0.0185561
0.0194772
0.0203795
0.0212564
0.0221008
0.0229056
0.0236635
0.0243676
0.0250104
0.0255854
0.0260856
0.0265052
0.0268381
0.0270796
0.027225
0.0272714
0.0272161
0.0270582
0.0267974
0.0264353
0.0259743
0.0254185
0.024773
0.0240441
0.0232396
0.0223674
0.0214371
0.020458
0.0194584
0.0184731
0.0176086
0.0169593
0.0166523
0.0167299
0.0171979
0.0180063
0.019051
0.0202572
0.0214783
0.0226304
0.023586
0.0242838
0.0246703
0.0247299
0.0244629
0.0238725
0.0229917
0.0217983
0.0203838
0.0187345
0.0169708
0.01519
0.0136467
0.0127759
0.00210617
0.00206093
0.00195658
0.00169671
0.00128438
0.000867608
0.000494969
0.000225198
8.96164e-05
5.83795e-05
0.000120366
0.00024152
0.000402771
0.000579754
0.000759135
0.000930349
0.00108785
0.00123483
0.00137532
0.00152047
0.00168159
0.00187226
0.0021032
0.0023791
0.00270108
0.00306537
0.00346917
0.00391025
0.00438919
0.00490579
0.00546128
0.00605468
0.00668693
0.00735619
0.00806303
0.00880468
0.00958125
0.0103889
0.0112272
0.0120912
0.0129798
0.0138869
0.0148107
0.0157439
0.0166842
0.0176231
0.0185576
0.0194785
0.0203823
0.0212591
0.0221049
0.0229096
0.023669
0.024373
0.0250172
0.0255921
0.0260936
0.0265131
0.026847
0.0270884
0.0272345
0.0272809
0.0272258
0.0270679
0.0268069
0.0264448
0.025983
0.0254272
0.0247805
0.0240517
0.0232455
0.0223734
0.0214411
0.0204622
0.0194548
0.0184697
0.0175804
0.0169312
0.0166118
0.0166897
0.0171695
0.0179783
0.0190425
0.0202491
0.0214932
0.0226452
0.0236154
0.0243127
0.0247021
0.0247608
0.0244926
0.023901
0.023018
0.0218232
0.0203987
0.0187485
0.0169664
0.0151857
0.0135647
0.0126941
0.00211076
0.00206553
0.00197378
0.00171756
0.00128348
0.000866528
0.000481975
0.000211619
7.93106e-05
4.77356e-05
0.000115432
0.000236499
0.000401842
0.000578867
0.000760315
0.000931608
0.00108883
0.00123585
0.00137434
0.00151948
0.00167786
0.00186848
0.00209827
0.00237412
0.00269708
0.00306131
0.00346543
0.00390643
0.00438534
0.00490185
0.00545742
0.00605072
0.00668318
0.00735233
0.00805954
0.00880106
0.00957816
0.0103857
0.0112247
0.0120885
0.0129781
0.013885
0.0148099
0.015743
0.0166846
0.0176233
0.0185593
0.01948
0.0203853
0.021262
0.0221094
0.022914
0.0236749
0.0243788
0.0250245
0.0255993
0.0261021
0.0265216
0.0268565
0.027098
0.0272448
0.0272912
0.0272363
0.0270784
0.0268171
0.0264551
0.0259924
0.0254367
0.0247886
0.0240599
0.0232518
0.0223799
0.0214455
0.0204667
0.019451
0.0184659
0.01755
0.016901
0.0165682
0.0166464
0.017139
0.0179482
0.0190334
0.0202403
0.0215092
0.0226611
0.0236471
0.0243439
0.0247364
0.0247942
0.0245246
0.0239318
0.0230464
0.0218501
0.0204148
0.0187636
0.016962
0.0151811
0.0134761
0.0126058
0.0021295
0.00208519
0.00201625
0.00176109
0.00129924
0.000887806
0.000473174
0.000204947
6.85985e-05
3.69814e-05
0.00011035
0.000231055
0.000400566
0.000577238
0.000761444
0.000932859
0.00108989
0.00123696
0.00137328
0.0015184
0.00167383
0.0018644
0.00209293
0.00236873
0.00269543
0.00306048
0.00346489
0.00390694
0.00438579
0.00490362
0.00545925
0.00605416
0.00668681
0.00735786
0.0080654
0.00880912
0.00958672
0.0103967
0.0112364
0.012103
0.0129934
0.0139033
0.0148292
0.0157653
0.0167081
0.01765
0.0185873
0.0195111
0.0204179
0.0212974
0.0221464
0.0229538
0.0237162
0.0244225
0.0250697
0.0256466
0.0261507
0.0265718
0.0269078
0.0271502
0.0272978
0.0273448
0.0272901
0.0271322
0.0268706
0.0265079
0.0260445
0.0254876
0.0248381
0.0241077
0.0232979
0.0224238
0.0214874
0.0205061
0.0194822
0.0184944
0.0175171
0.0168682
0.016521
0.0165996
0.0171059
0.0179156
0.0190236
0.0202309
0.0215313
0.0226814
0.0236991
0.0243835
0.0247822
0.0248322
0.0245623
0.0239652
0.023081
0.0218774
0.0204293
0.0187727
0.0169588
0.0151744
0.0134114
0.0125403
0.00217913
0.00213612
0.00206746
0.00180809
0.00134718
0.000920531
0.000506713
0.000219863
8.39214e-05
3.80211e-05
0.000111459
0.000224955
0.000394379
0.00057031
0.000754417
0.000929525
0.00108672
0.00123927
0.00137542
0.00152543
0.0016808
0.00187589
0.00210601
0.00238847
0.00271824
0.00309236
0.00349669
0.00395028
0.00442904
0.00496126
0.00551679
0.00612918
0.00676172
0.00745349
0.0081609
0.00892854
0.00970599
0.0105429
0.0113825
0.0122786
0.0131688
0.0141104
0.0150362
0.0160054
0.0169479
0.0179235
0.0188606
0.0198177
0.0207244
0.0216358
0.0224846
0.0233217
0.024084
0.0248167
0.0254638
0.0260629
0.026567
0.0270054
0.0273414
0.0275956
0.0277431
0.0277959
0.0277413
0.0275828
0.0273213
0.0269517
0.0264884
0.0259186
0.0252692
0.0245201
0.0237104
0.0228126
0.0218764
0.0208671
0.0198435
0.0188252
0.0178081
0.0171328
0.0167523
0.0168329
0.017328
0.0181496
0.0192534
0.0204557
0.0217616
0.022877
0.0238903
0.0245305
0.0249255
0.0249283
0.0246555
0.0240154
0.0231289
0.0218929
0.0204436
0.0187696
0.0169553
0.0151667
0.013404
0.0125335
0.00223273
0.0021911
0.00212275
0.00185885
0.00139893
0.00095587
0.000542931
0.00023597
0.000100468
3.91438e-05
0.000112658
0.000218368
0.000387698
0.000562828
0.000746829
0.000925926
0.00108309
0.00124191
0.00137812
0.00153499
0.00169045
0.00189262
0.00212277
0.00241316
0.00274287
0.00312678
0.00353103
0.00399707
0.00447574
0.0050235
0.00557891
0.0062102
0.0068426
0.00755675
0.00826401
0.00905748
0.00983478
0.0107008
0.0115402
0.0124682
0.0133583
0.014334
0.0152596
0.0162645
0.0172069
0.0182188
0.0191557
0.0201488
0.0210552
0.0220012
0.0228498
0.023719
0.0244811
0.0252424
0.0258893
0.0265125
0.0270165
0.0274737
0.0278096
0.0280766
0.028224
0.0282831
0.0282284
0.0280695
0.027808
0.027431
0.0269677
0.0263839
0.0257347
0.0249655
0.0241559
0.0232325
0.0222964
0.021257
0.0202336
0.0191824
0.0181655
0.0174604
0.0170787
0.017138
0.0176298
0.0184332
0.0195324
0.0207096
0.0220104
0.0230881
0.0240967
0.0246891
0.0250802
0.0250321
0.0247561
0.0240695
0.0231807
0.0219098
0.020459
0.0187661
0.0169516
0.0151584
0.0133961
0.0125262
0.0022906
0.00225048
0.00218246
0.00191366
0.00145483
0.000994029
0.00058204
0.000253363
0.000118335
4.03562e-05
0.000113952
0.000211255
0.000380483
0.000554749
0.000738635
0.000922039
0.00107917
0.00124475
0.00138103
0.00154531
0.00170087
0.00191069
0.00214086
0.00243983
0.00276946
0.00316396
0.00356812
0.00404761
0.00452617
0.00509071
0.005646
0.00629769
0.00692995
0.00766825
0.00837536
0.00919673
0.00997385
0.0108713
0.0117105
0.012673
0.0135629
0.0145755
0.0155009
0.0165444
0.0174866
0.0185376
0.0194744
0.0205063
0.0214125
0.0223958
0.0232442
0.024148
0.0249099
0.025702
0.0263488
0.026998
0.0275018
0.0279793
0.0283152
0.0285959
0.0287433
0.0288091
0.0287545
0.0285949
0.0283335
0.0279485
0.0274854
0.0268864
0.0262373
0.0254463
0.024637
0.0236859
0.02275
0.021678
0.0206548
0.0195682
0.0185515
0.0178142
0.0174311
0.0174674
0.0179558
0.0187395
0.0198337
0.0209836
0.0222791
0.0233161
0.0243196
0.0248605
0.0252472
0.0251441
0.0248647
0.0241279
0.0232366
0.0219279
0.0204756
0.0187624
0.0169475
0.0151495
0.0133875
0.0125183
0.00235309
0.0023146
0.00224694
0.00197284
0.00151518
0.00103524
0.000624272
0.000272145
0.000137629
4.16653e-05
0.00011535
0.000203574
0.000372693
0.000546025
0.000729786
0.000917842
0.00107494
0.00124782
0.00138417
0.00155646
0.00171213
0.0019302
0.0021604
0.00246863
0.00279818
0.0032041
0.00360816
0.00410217
0.00458062
0.00516328
0.00571844
0.00639215
0.00702427
0.00778866
0.0084956
0.00934709
0.010124
0.0110553
0.0118943
0.0128941
0.0137838
0.0148363
0.0157615
0.0168466
0.0177885
0.018882
0.0198185
0.0208923
0.0217983
0.0228219
0.0236701
0.0246112
0.025373
0.0261983
0.026845
0.0275222
0.028026
0.0285253
0.0288611
0.0291567
0.0293041
0.0293772
0.0293226
0.0291623
0.028901
0.0285074
0.0280443
0.027429
0.0267801
0.0259656
0.0251564
0.0241755
0.0232399
0.0221327
0.0211097
0.0199848
0.0189683
0.0181963
0.0178116
0.0178232
0.0183077
0.0190703
0.0201591
0.0212796
0.0225692
0.0235623
0.0245603
0.0250455
0.0254276
0.0252651
0.024982
0.024191
0.023297
0.0219475
0.0204936
0.0187584
0.0169432
0.0151398
0.0133782
0.0125098
0.00242057
0.00238384
0.00231656
0.00203675
0.00158035
0.00107973
0.000669875
0.000292427
0.000158463
4.3079e-05
0.000116859
0.000195279
0.00036428
0.000536604
0.000720232
0.000913309
0.00107037
0.00125114
0.00138756
0.0015685
0.00172428
0.00195127
0.0021815
0.00249972
0.00282919
0.00324744
0.0036514
0.0041611
0.00463942
0.00524165
0.00579667
0.00649417
0.00712612
0.00791868
0.00862544
0.00950945
0.0102862
0.0112541
0.0120929
0.0131329
0.0140223
0.0151179
0.0160429
0.0171729
0.0181146
0.0192538
0.0201901
0.0213091
0.022215
0.023282
0.02413
0.0251114
0.025873
0.0267343
0.0273808
0.0280883
0.0285919
0.0291149
0.0294506
0.0297623
0.0299096
0.0299906
0.029936
0.029775
0.0295137
0.0291108
0.0286479
0.028015
0.0273662
0.0265263
0.0257174
0.0247042
0.0237688
0.0226236
0.0216009
0.0204346
0.0194184
0.0186088
0.0182226
0.0182073
0.0186877
0.0194274
0.0205105
0.0215992
0.0228824
0.0238282
0.0248202
0.0252453
0.0256224
0.0253957
0.0251087
0.0242591
0.0233622
0.0219687
0.020513
0.018754
0.0169384
0.0151293
0.0133682
0.0125006
0.00249344
0.00245861
0.00239174
0.00210576
0.00165073
0.00112778
0.00071912
0.000314328
0.000180961
4.46056e-05
0.000118488
0.000186323
0.000355196
0.000526432
0.000709914
0.000908415
0.00106543
0.00125472
0.00139122
0.0015815
0.0017374
0.00197402
0.00220429
0.0025333
0.00286268
0.00329425
0.0036981
0.00422472
0.00470292
0.00532628
0.00588114
0.00660432
0.0072361
0.00805908
0.00876565
0.00968478
0.0104613
0.0114688
0.0123073
0.0133908
0.0142799
0.015422
0.0163467
0.0175253
0.0184668
0.0196553
0.0205913
0.0217593
0.0226648
0.0237788
0.0246266
0.0256516
0.026413
0.027313
0.0279593
0.0286996
0.0292031
0.0297516
0.0300872
0.0304162
0.0305635
0.0306529
0.0305984
0.0304367
0.0301754
0.0297625
0.0292997
0.0286477
0.0279991
0.0271318
0.0263231
0.0252751
0.0243399
0.0231537
0.0221313
0.0209204
0.0199044
0.0190543
0.0186663
0.0186222
0.0190981
0.0198131
0.0208899
0.0219443
0.0232207
0.0241152
0.0251009
0.025461
0.0258327
0.0255368
0.0252455
0.0243327
0.0234326
0.0219915
0.020534
0.0187493
0.0169334
0.0151181
0.0133574
0.0124906
0.00260779
0.00257357
0.00251241
0.00221798
0.00176361
0.00121907
0.000793814
0.00036669
0.000211976
5.99806e-05
0.000119989
0.000180136
0.000341979
0.00051265
0.000696475
0.000898916
0.00106061
0.00125664
0.00139814
0.00159701
0.00175707
0.00200307
0.00223943
0.00257728
0.00291957
0.00336032
0.00377557
0.00431388
0.00480671
0.00544466
0.00601745
0.00675836
0.00741154
0.00825553
0.00898704
0.00993042
0.0107353
0.0117701
0.01264
0.0137534
0.0146766
0.0158508
0.0168113
0.0180234
0.0190017
0.0202243
0.0211972
0.0223989
0.0233402
0.0244867
0.0253682
0.0264232
0.0272153
0.0281422
0.0288149
0.0295779
0.0301028
0.030669
0.0310203
0.0313614
0.0315182
0.0316134
0.0315617
0.0313995
0.0311343
0.0307145
0.0302411
0.029576
0.0289105
0.0280243
0.0271929
0.0261209
0.025158
0.0239435
0.0228937
0.0216519
0.0205521
0.0196698
0.0192575
0.0191674
0.0196581
0.0203216
0.0214102
0.0224152
0.0236766
0.0245291
0.0254652
0.0257837
0.0260911
0.0257465
0.0254014
0.0244418
0.0235001
0.0220276
0.0205402
0.0187399
0.0169252
0.0151091
0.0134201
0.0125549
0.00277047
0.00273644
0.00264495
0.00235232
0.00190163
0.0013607
0.000901434
0.000477438
0.000259883
0.000109223
0.000121098
0.000181326
0.000321458
0.000491727
0.000676541
0.00087864
0.00105718
0.00125321
0.00141952
0.00161868
0.00180625
0.00205256
0.00231497
0.0026528
0.00302116
0.00346177
0.00391166
0.00444979
0.00498706
0.0056248
0.006252
0.00699267
0.00771082
0.00855453
0.00936171
0.0103048
0.0111956
0.0122301
0.0131953
0.0143083
0.0153345
0.0165083
0.0175773
0.0187891
0.019879
0.0211012
0.0221857
0.0233871
0.024437
0.0255831
0.026567
0.0276217
0.0285065
0.0294331
0.0301862
0.030949
0.0315391
0.032105
0.0325041
0.0328451
0.0330306
0.0331257
0.0330826
0.0329204
0.0326433
0.0322236
0.0317181
0.0310531
0.0303363
0.0294504
0.0285501
0.0274785
0.0264315
0.0252173
0.0240844
0.022843
0.0216979
0.0208145
0.0203484
0.0202505
0.0206539
0.0213041
0.0222827
0.0232716
0.0243843
0.0252213
0.0259905
0.0262961
0.0264409
0.0260865
0.0255895
0.0246233
0.0235568
0.0220809
0.0205291
0.0187278
0.0169154
0.0150995
0.0135719
0.0127069
0.00294708
0.00291325
0.00282419
0.00253325
0.00205259
0.00151551
0.00101765
0.000597028
0.000311614
0.000162397
0.000122295
0.000182611
0.000299298
0.000469133
0.000655016
0.000856746
0.00105347
0.0012495
0.00144261
0.00164209
0.00185937
0.00210599
0.00239654
0.00273436
0.00313086
0.00357132
0.0040586
0.00459655
0.00518181
0.00581933
0.00650527
0.00724569
0.008034
0.00887741
0.0097663
0.010709
0.0116927
0.0127268
0.0137949
0.0149075
0.0160449
0.0172183
0.0184046
0.0196159
0.0208263
0.0220481
0.0232532
0.0244541
0.0256214
0.0267671
0.0278614
0.0289157
0.0299009
0.0308271
0.031667
0.0324295
0.03309
0.0336557
0.0341064
0.0344473
0.0346637
0.0347589
0.0347249
0.0345628
0.0342727
0.0338532
0.0333129
0.0326482
0.0318759
0.0309904
0.0300157
0.0289444
0.0278066
0.0265928
0.0253701
0.0241292
0.0229352
0.0220505
0.0215264
0.0214201
0.0217291
0.0223652
0.0232248
0.0241964
0.0251486
0.0259686
0.0265578
0.0268494
0.0268186
0.0264536
0.0257927
0.0248193
0.023618
0.0221384
0.0205224
0.0187203
0.0168899
0.0150742
0.0137122
0.0128472
0.00315294
0.00311936
0.00308349
0.00279606
0.0022266
0.00169411
0.00108043
0.000661479
0.000311714
0.000162249
8.93949e-05
0.000148829
0.000260969
0.000429961
0.000630918
0.000832228
0.00105148
0.00124756
0.00146339
0.00166313
0.00190201
0.00214884
0.00246302
0.00280079
0.00322741
0.00366771
0.00419555
0.0047333
0.00536936
0.00600664
0.00675567
0.0074958
0.00836031
0.00920341
0.0101819
0.0111243
0.0122106
0.0132443
0.014427
0.0155393
0.0168014
0.0179743
0.0192931
0.0205039
0.0218513
0.0230726
0.0244155
0.025616
0.026918
0.0280633
0.0292854
0.0303393
0.031441
0.0323669
0.0333084
0.0340706
0.0348142
0.0353797
0.0358918
0.0362326
0.0364863
0.0365814
0.0365588
0.0363967
0.0360913
0.035672
0.03509
0.0344255
0.0335865
0.0327013
0.0316373
0.0305664
0.0293198
0.0281065
0.0267454
0.0255049
0.0241419
0.023256
0.0226218
0.0225079
0.0227762
0.0233987
0.024224
0.0251772
0.0260621
0.0268618
0.0273189
0.0275916
0.02737
0.0269897
0.0261313
0.0251465
0.0237829
0.0222964
0.0205477
0.0187435
0.0168345
0.0150197
0.0134804
0.0126161
0.00337577
0.00334282
0.00336036
0.00306991
0.00241643
0.00188742
0.00114776
0.000730484
0.000306718
0.00015691
5.1266e-05
0.000109702
0.00021868
0.000386743
0.00060481
0.000805665
0.00104966
0.00124579
0.00148496
0.00168499
0.0019446
0.00219167
0.00253077
0.00286848
0.0033305
0.00377061
0.00434228
0.0048798
0.00557066
0.00620767
0.00702481
0.00776464
0.00871146
0.00955422
0.0106295
0.0115716
0.0127688
0.0138021
0.0151088
0.0162206
0.0176177
0.0187902
0.0202523
0.0214626
0.0229581
0.024179
0.0256712
0.0268711
0.0283192
0.029464
0.0308244
0.0318779
0.033106
0.0340315
0.0350832
0.035845
0.0366787
0.037244
0.0378227
0.0381634
0.0384575
0.0385526
0.0385423
0.0383803
0.0380583
0.0376391
0.0370119
0.0363477
0.0354362
0.0345513
0.0333904
0.0323199
0.0309554
0.0297426
0.0282297
0.0269897
0.0254207
0.0245335
0.0237636
0.0236415
0.0238835
0.0244914
0.0253001
0.0262335
0.0270574
0.027835
0.0281499
0.028402
0.0279763
0.0275792
0.0265076
0.0255103
0.0239619
0.0224676
0.0205719
0.0187665
0.0167773
0.0149607
0.0132344
0.0123698
0.00365005
0.00362789
0.00364701
0.00334506
0.00269745
0.00209864
0.00135481
0.000850753
0.000416921
0.000192138
8.35396e-05
9.33297e-05
0.000201354
0.000350123
0.000569077
0.000774984
0.00102202
0.00123772
0.00148059
0.00170542
0.00196894
0.00224134
0.0025849
0.00295042
0.00341588
0.00389331
0.00446814
0.00505401
0.00574884
0.00644741
0.00726951
0.00808537
0.00903819
0.00997213
0.0110545
0.0121029
0.0133083
0.0144622
0.015778
0.0170229
0.01843
0.0197458
0.0212184
0.0225791
0.0240855
0.0254599
0.0269631
0.0283158
0.0297746
0.0310672
0.0324378
0.0336298
0.0348672
0.0359177
0.0369775
0.0378469
0.0386873
0.0393392
0.0399229
0.0403262
0.0406233
0.0407547
0.0407454
0.0405918
0.0402686
0.0398291
0.0391986
0.0384858
0.0375691
0.0366088
0.0354408
0.0342704
0.0328973
0.0315635
0.0300394
0.0286635
0.0270539
0.0260441
0.0252357
0.0250141
0.0252367
0.0257404
0.0265291
0.0273212
0.0281168
0.0287079
0.0289859
0.0290269
0.0285658
0.0279639
0.0268591
0.0256894
0.024109
0.0224914
0.0205808
0.0187099
0.016721
0.0148971
0.0131717
0.0123147
0.00394623
0.00393572
0.00395655
0.00364217
0.0030009
0.00232671
0.00158915
0.000980896
0.000550618
0.00023442
0.000126919
7.79321e-05
0.000185672
0.000311323
0.000529541
0.000741611
0.000988105
0.00122782
0.00147057
0.00172669
0.00199038
0.00229587
0.00263948
0.00304066
0.0035059
0.00402677
0.00460133
0.00524347
0.00593797
0.00670819
0.0075299
0.00843425
0.00938662
0.0104267
0.0115086
0.0126807
0.0138855
0.0151797
0.0164949
0.0178949
0.0193013
0.0207839
0.0222558
0.0237914
0.0252972
0.0268503
0.0283528
0.0298834
0.0313415
0.032806
0.034176
0.0355291
0.0367659
0.0379618
0.0390212
0.0400158
0.0408558
0.0416086
0.0421919
0.0426682
0.0429652
0.0431388
0.0431295
0.0429856
0.0426625
0.0421995
0.0415692
0.0408
0.0398837
0.0388356
0.0376681
0.0363815
0.035009
0.0335343
0.032011
0.0304768
0.0288679
0.0277018
0.0268871
0.0265294
0.0267364
0.0271024
0.0278692
0.0284872
0.0292589
0.029628
0.0298842
0.029675
0.0291966
0.0283502
0.027233
0.0258556
0.0242676
0.022504
0.0205905
0.0186488
0.0166603
0.0148284
0.0131041
0.0122553
0.00426605
0.00426814
0.00429081
0.003963
0.00332858
0.002573
0.00184219
0.00112143
0.000694988
0.000280078
0.000173763
6.13051e-05
0.000168738
0.000269425
0.000486849
0.000705574
0.000951481
0.00121712
0.00145975
0.00174966
0.00201353
0.00235474
0.00269843
0.0031381
0.00360311
0.00417089
0.00474516
0.00544805
0.0061422
0.00698979
0.00781107
0.00881098
0.00976287
0.0109175
0.0119989
0.0133046
0.0145088
0.0159546
0.0172691
0.0188365
0.0202422
0.0219049
0.0233761
0.0251006
0.0266056
0.0283517
0.0298534
0.0315761
0.0330334
0.0346837
0.0360529
0.03758
0.0388162
0.0401692
0.041228
0.0423579
0.0431974
0.0440591
0.0446422
0.0451972
0.045494
0.0457132
0.0457039
0.0455705
0.0452476
0.044759
0.0441291
0.0432988
0.042383
0.0412401
0.0400732
0.0386611
0.0372893
0.0356625
0.03414
0.0324349
0.0308267
0.0294919
0.0286703
0.0281658
0.0283558
0.0285731
0.0293164
0.0297463
0.0304922
0.0306216
0.0308542
0.0303748
0.0298778
0.0287672
0.0276367
0.0260351
0.0244388
0.0225177
0.0206009
0.0185828
0.0165947
0.0147543
0.0130311
0.0121912
0.00465125
0.00465744
0.00461482
0.00429232
0.00368283
0.00290803
0.00215144
0.0013903
0.000883321
0.000430167
0.000244997
0.000107313
0.000158531
0.00024885
0.000439182
0.000660123
0.000907122
0.00118339
0.00144575
0.00175073
0.00204164
0.00239985
0.00276971
0.00322704
0.00371815
0.00430403
0.00491438
0.00564074
0.00638242
0.0072599
0.00814112
0.00917796
0.0102031
0.0114021
0.0125703
0.0139277
0.0152319
0.0167364
0.0181629
0.0197951
0.0213229
0.0230554
0.0246563
0.0264539
0.0280932
0.0299141
0.0315514
0.0333483
0.0349391
0.0366612
0.0381581
0.0397526
0.0411071
0.0425209
0.0436854
0.0448676
0.0457971
0.0467009
0.0473554
0.0479409
0.0482884
0.0485253
0.048544
0.0484146
0.0480959
0.0475975
0.0469474
0.0460936
0.0451334
0.0439539
0.0427195
0.0412588
0.0397983
0.0381127
0.0364995
0.0347284
0.0330539
0.0316405
0.0307242
0.0301352
0.0301662
0.0302949
0.0308352
0.0311647
0.0316706
0.0316853
0.0316847
0.0310832
0.0303949
0.0291674
0.0278871
0.0261873
0.0244835
0.0224971
0.0205375
0.0184929
0.0165241
0.0146842
0.0131424
0.0123066
0.00508342
0.00509008
0.00508342
0.00476624
0.00409908
0.00333484
0.00247709
0.00172528
0.00107725
0.000629138
0.000309683
0.000173537
0.00013565
0.000225499
0.000379147
0.000598922
0.000853002
0.0011284
0.00142623
0.00173093
0.00206958
0.00242782
0.00284379
0.00330094
0.00383555
0.00442108
0.00509164
0.00581756
0.00663885
0.0075158
0.00849814
0.00953436
0.0106838
0.0118821
0.0131983
0.0145548
0.0160302
0.0175337
0.0191525
0.0207837
0.0225216
0.0242531
0.0260777
0.0278742
0.0297456
0.0315654
0.0334375
0.0352334
0.0370553
0.0387764
0.0404948
0.0420883
0.0436485
0.0450615
0.0464098
0.0475914
0.0486774
0.0495808
0.0503597
0.0509449
0.0513803
0.0516171
0.0516841
0.0515548
0.0512424
0.0507444
0.0500576
0.0492043
0.0481651
0.0469863
0.0456324
0.0441727
0.0425556
0.040871
0.0390829
0.0373128
0.0354987
0.0340832
0.0329861
0.0323813
0.0321348
0.0322376
0.03245
0.0327495
0.0328872
0.0328742
0.0325053
0.0318826
0.0308592
0.0296173
0.0280631
0.0263549
0.0244624
0.0224729
0.0204195
0.0183754
0.0163839
0.0145456
0.013148
0.0123125
0.00555073
0.00556002
0.00571184
0.0053984
0.00461497
0.00385615
0.0027589
0.00201724
0.00118314
0.000737391
0.000297248
0.000160582
5.78943e-05
0.000146271
0.000287927
0.000505854
0.000784721
0.001059
0.00139427
0.00169855
0.00207393
0.00243202
0.00288425
0.00334115
0.00392167
0.0045069
0.00523922
0.00596478
0.00686874
0.00774528
0.00883494
0.00987069
0.0111542
0.012352
0.01383
0.015186
0.0168505
0.0183534
0.0201865
0.0218171
0.0237911
0.0255219
0.0275994
0.0293952
0.0315305
0.0333496
0.0354896
0.0372848
0.0393719
0.0410924
0.0430657
0.0446586
0.0464563
0.0478688
0.0494303
0.0506115
0.0518797
0.0527828
0.0537067
0.0542918
0.0548296
0.0550664
0.0551887
0.0550596
0.0547525
0.0542548
0.0535221
0.0526692
0.0515335
0.0503553
0.0488571
0.047398
0.0455938
0.04391
0.041868
0.0400987
0.0379175
0.0364998
0.0351162
0.0344964
0.0341025
0.0341793
0.0342207
0.0344872
0.0343678
0.0343213
0.0335938
0.0329442
0.0315254
0.0302637
0.0283592
0.0266389
0.0244816
0.0224883
0.0202627
0.0182169
0.0161677
0.0143335
0.0127117
0.0118777
0.00612336
0.00616677
0.0063219
0.00602197
0.00525195
0.00439872
0.00331648
0.00240619
0.00157754
0.000953758
0.000516555
0.000229024
0.000126563
0.000113147
0.000253068
0.000425671
0.00070366
0.000978975
0.0013149
0.00164655
0.00202347
0.00241629
0.00286967
0.00336178
0.00394074
0.00457067
0.00530247
0.00609054
0.00699387
0.0079559
0.00904479
0.0101919
0.0114746
0.0128116
0.0142886
0.0158122
0.0174755
0.0191735
0.0210054
0.022856
0.0248287
0.0268007
0.0288767
0.0309299
0.0330637
0.0351503
0.0372888
0.0393552
0.0414408
0.0434293
0.0454012
0.0472519
0.0490483
0.0507013
0.0522618
0.0536593
0.0549266
0.0560153
0.0569385
0.0576723
0.0582097
0.0585528
0.058675
0.0586054
0.0582985
0.0578104
0.0570782
0.0561837
0.0550487
0.053778
0.0522809
0.050681
0.048878
0.0470096
0.0449691
0.0429761
0.0407833
0.0391184
0.0377039
0.0368114
0.0363848
0.0361369
0.03614
0.0360191
0.0358583
0.0353877
0.0346251
0.0335675
0.0321257
0.0305229
0.0286023
0.0266338
0.0244663
0.0223247
0.0200996
0.0180059
0.0159599
0.0141495
0.0125297
0.0117206
0.00674172
0.00682197
0.00697914
0.00669534
0.00593979
0.00498461
0.00391857
0.00282618
0.002009
0.00118808
0.000756762
0.00030293
0.000202244
7.73786e-05
0.000216652
0.000339407
0.00061587
0.000892297
0.00122692
0.00158914
0.00196532
0.00239765
0.00285062
0.00338281
0.00396133
0.00463952
0.00537077
0.00622635
0.00712899
0.00818333
0.0092714
0.0105389
0.0118205
0.0133078
0.0147838
0.0164884
0.0181505
0.0200591
0.0218896
0.0239779
0.0259491
0.0281816
0.0302561
0.0325872
0.0347193
0.0370948
0.0392317
0.041591
0.043675
0.0459528
0.0479233
0.0500522
0.0518473
0.05376
0.0553192
0.0569504
0.0582168
0.0595058
0.0604284
0.0613226
0.0618597
0.0623175
0.0624396
0.0624343
0.0621276
0.0616499
0.0609182
0.0599787
0.0588446
0.0574741
0.055978
0.0542261
0.0524244
0.0503567
0.0483178
0.0460831
0.0438919
0.0419466
0.0405216
0.0393132
0.038861
0.0382438
0.038213
0.0376613
0.037466
0.0365298
0.0357388
0.0342354
0.032774
0.0307965
0.0288643
0.0266222
0.0244497
0.0221479
0.0199236
0.017778
0.0157355
0.0139516
0.0123332
0.0115509
0.00751621
0.00760223
0.00760083
0.0073291
0.00665313
0.00570146
0.00463758
0.00352482
0.0025621
0.00171149
0.00108902
0.000607094
0.000331145
0.00018572
0.000195318
0.000307471
0.000516329
0.000791581
0.00111632
0.00148406
0.00188369
0.00232469
0.00280845
0.00334981
0.00395595
0.00464295
0.00541283
0.00628078
0.00723944
0.00831078
0.00947616
0.0107658
0.0121485
0.0136637
0.0152657
0.0170039
0.0188174
0.0207652
0.0227712
0.0249037
0.027072
0.029353
0.0316429
0.0340257
0.0363871
0.0388164
0.0411916
0.0436054
0.045931
0.0482628
0.0504726
0.0526535
0.0546796
0.0566409
0.0584167
0.0600916
0.0615542
0.0628808
0.0639733
0.0648977
0.0655729
0.0660525
0.0662761
0.0662831
0.0660372
0.0655619
0.0648472
0.0638997
0.0627372
0.0613484
0.0597786
0.0579986
0.0560794
0.0539749
0.0518079
0.0495284
0.0472573
0.0452435
0.0435962
0.04229
0.041405
0.0406724
0.0401234
0.0394491
0.0387266
0.0376711
0.036439
0.0348299
0.0330526
0.0309897
0.0288478
0.0265456
0.0242582
0.0219255
0.0196912
0.0175414
0.0155543
0.0137756
0.0124553
0.0116782
0.00828629
0.00837309
0.00874066
0.0084806
0.00766702
0.00673846
0.00536299
0.00427073
0.00301906
0.00218
0.00129959
0.000822305
0.000341588
0.000196128
8.04103e-05
0.000190053
0.000354122
0.000626495
0.000959623
0.00132524
0.00175406
0.00219381
0.00270083
0.00324157
0.003865
0.00455139
0.00535974
0.00622692
0.00725078
0.00832118
0.00958297
0.0108715
0.0123859
0.0138998
0.0156715
0.0174082
0.0194299
0.021376
0.0236274
0.025758
0.0282055
0.0304845
0.033082
0.0354627
0.0381537
0.0405809
0.0432999
0.0457116
0.0483873
0.0507171
0.0532744
0.0554534
0.0578156
0.0597751
0.0618665
0.0635399
0.0652882
0.0666136
0.0679528
0.0688764
0.0697502
0.0702294
0.0705956
0.0706026
0.0704366
0.0699616
0.0692596
0.0683129
0.0670937
0.0657061
0.0640111
0.0622327
0.060124
0.0580213
0.0555799
0.0533024
0.0506312
0.0486149
0.0465634
0.0452368
0.0439642
0.0431978
0.0421862
0.0414727
0.0402118
0.0391211
0.0373194
0.0356854
0.0333939
0.0313175
0.028791
0.0264844
0.0239548
0.0216251
0.0192615
0.0171172
0.0151147
0.0133428
0.0118794
0.0111035
0.00924207
0.00940148
0.00977748
0.00959494
0.00880516
0.00780362
0.00644113
0.00515602
0.00390116
0.00280546
0.0019216
0.00117718
0.000690277
0.000311155
0.000187138
0.000129406
0.000288463
0.000469881
0.000802002
0.00113543
0.00156508
0.00199861
0.0025056
0.00304174
0.00366289
0.00434798
0.00515764
0.0060388
0.00706533
0.00817238
0.00943841
0.0107912
0.0123117
0.0139213
0.015701
0.0175676
0.0195993
0.0217104
0.0239737
0.0263036
0.0287648
0.031275
0.0338878
0.0365279
0.0392353
0.041945
0.0446813
0.0473927
0.050086
0.0527261
0.055301
0.0577934
0.0601727
0.0624408
0.0645484
0.0665169
0.06828
0.069878
0.0712301
0.0723948
0.0732792
0.0739591
0.0743331
0.0744924
0.074331
0.0739532
0.0732524
0.0723429
0.0711214
0.0697087
0.0680079
0.0661423
0.0640245
0.0617758
0.0593202
0.0568343
0.0541417
0.0518325
0.0497288
0.0479904
0.0466594
0.0453642
0.0442838
0.0429778
0.0416431
0.0399764
0.0381092
0.0359932
0.0336553
0.0312316
0.0286744
0.0261576
0.0236122
0.0211921
0.01883
0.0166921
0.0146978
0.0129974
0.0115317
0.0108009
0.0103562
0.010567
0.0108253
0.0107048
0.00999848
0.00896079
0.00765418
0.00622582
0.00493667
0.00364181
0.00267662
0.00172326
0.00113649
0.000573796
0.000350191
0.000159746