/*--------------------------------*- C++ -*----------------------------------*\
| =========                 |                                                 |
| \\      /  F ield         | OpenFOAM: The Open Source CFD Toolbox           |
|  \\    /   O peration     | Version:  v2106                                 |
|   \\  /    A nd           | Website:  www.openfoam.com                      |
|    \\/     M anipulation  |                                                 |
\*---------------------------------------------------------------------------*/
FoamFile
{
    version     2.0;
    format      ascii;
    arch        "LSB;label=32;scalar=64";
    class       volScalarField;
    location    "0";
    object      expGpCoeffs36;
}
// * * * * * * * * * * * * * * * * * * * * * * * * * * * * * * * * * * * * * //

dimensions      [0 0 0 0 0 0 0];

internalField   nonuniform List<scalar> 
8000
(
0.0176085
0.018207
0.0189865
0.019722
0.0196423
0.0187218
0.0167299
0.0138007
0.0105755
0.00711068
0.00427931
0.0021373
0.00108139
0.00111837
0.00206018
0.00386388
0.0059869
0.00841134
0.0106958
0.0128336
0.0147499
0.0164318
0.017999
0.0194365
0.0207908
0.022055
0.0231781
0.0241545
0.0249261
0.0254884
0.0257986
0.0258536
0.0256304
0.0251282
0.0243496
0.0232963
0.0219998
0.0204643
0.0187492
0.016861
0.0148825
0.012822
0.0107772
0.0087573
0.00686426
0.00510708
0.00357938
0.00228876
0.00130816
0.000642838
0.000334519
0.000385316
0.000798939
0.0015739
0.0026741
0.00409459
0.00576338
0.00767258
0.00972357
0.0119067
0.0141101
0.0163234
0.0184366
0.0204403
0.0222407
0.0238305
0.0251433
0.0261747
0.0268921
0.0272942
0.0273833
0.0271609
0.0266596
0.0258834
0.0248916
0.0236907
0.0223502
0.0208811
0.0192617
0.0175083
0.0154965
0.0132394
0.0107675
0.00808605
0.00558982
0.00329054
0.00173515
0.000963387
0.00124542
0.00258476
0.00472634
0.00762637
0.0105248
0.0133792
0.0154954
0.0167458
0.0172025
0.0168555
0.0163597
0.0159241
0.0175603
0.0181587
0.0190231
0.0197591
0.0197378
0.0188198
0.0167976
0.0138694
0.0105568
0.00709
0.00419838
0.00205339
0.000991103
0.00102576
0.00200865
0.00381158
0.00598637
0.00841113
0.0107172
0.0128553
0.0147641
0.0164459
0.0180043
0.0194416
0.0207997
0.0220637
0.0231927
0.0241689
0.024945
0.0255073
0.0258206
0.0258756
0.0256534
0.0251512
0.024371
0.0233179
0.0220171
0.0204818
0.0187601
0.0168722
0.0148853
0.012825
0.0107709
0.00875127
0.00684911
0.00509217
0.00355669
0.00226624
0.00128028
0.000615043
0.000304591
0.000355381
0.000770502
0.00154536
0.0026506
0.00407091
0.00574767
0.00765662
0.00971745
0.0119003
0.0141141
0.0163271
0.0184498
0.0204532
0.0222611
0.0238507
0.0251681
0.0261993
0.0269182
0.0273202
0.0274077
0.0271853
0.0266799
0.0259037
0.0249055
0.0237047
0.0223578
0.0208889
0.0192766
0.0175233
0.0155213
0.0132639
0.0107752
0.00809327
0.00554865
0.00324976
0.00165025
0.000880413
0.00115846
0.00250061
0.00468844
0.00759076
0.0105702
0.0134243
0.0155838
0.016832
0.0172448
0.0168972
0.0163245
0.015889
0.0175083
0.0181065
0.0190626
0.0197991
0.0198409
0.0189256
0.0168706
0.0139435
0.0105366
0.00706766
0.00411099
0.00196277
0.000893612
0.000925761
0.001953
0.0037551
0.0059858
0.0084109
0.0107403
0.0128787
0.0147794
0.0164612
0.01801
0.0194472
0.0208092
0.0220731
0.0232083
0.0241844
0.0249655
0.0255277
0.0258443
0.0258993
0.0256781
0.025176
0.0243941
0.0233411
0.0220358
0.0205007
0.0187719
0.0168842
0.0148882
0.0128282
0.0107641
0.00874475
0.00683276
0.00507606
0.00353219
0.00224192
0.00125018
0.000585028
0.000272273
0.000323056
0.000739795
0.00151455
0.00262523
0.00404534
0.0057307
0.00763939
0.00971084
0.0118934
0.0141183
0.016331
0.018464
0.0204672
0.0222832
0.0238725
0.0251949
0.026226
0.0269463
0.0273483
0.0274339
0.0272116
0.0267018
0.0259257
0.0249204
0.0237199
0.022366
0.0208973
0.0192927
0.0175394
0.0155481
0.0132903
0.0107835
0.00810107
0.00550419
0.00320573
0.00155858
0.000790815
0.00106457
0.00240975
0.00464752
0.00755231
0.0106192
0.013473
0.0156792
0.0169251
0.0172905
0.0169423
0.0162865
0.0158511
0.0174521
0.0180501
0.0191053
0.0198424
0.0199522
0.0190399
0.0169495
0.0140236
0.0105147
0.00704353
0.00401662
0.00186492
0.000788336
0.000817775
0.00189291
0.00369411
0.00598519
0.00841066
0.0107653
0.012904
0.014796
0.0164777
0.0180162
0.0194531
0.0208196
0.0220832
0.0232253
0.0242012
0.0249877
0.0255498
0.02587
0.025925
0.0257049
0.0252028
0.0244191
0.0233663
0.022056
0.0205212
0.0187846
0.0168972
0.0148914
0.0128317
0.0107568
0.00873772
0.0068151
0.00505866
0.00350574
0.00221565
0.00121767
0.000552618
0.000237375
0.00028815
0.000706636
0.00148127
0.00259783
0.00401773
0.00571237
0.00762078
0.0097037
0.0118859
0.014123
0.0163353
0.0184794
0.0204823
0.022307
0.0238961
0.0252238
0.0262547
0.0269767
0.0273786
0.0274623
0.02724
0.0267254
0.0259495
0.0249366
0.0237362
0.0223748
0.0209063
0.01931
0.0175568
0.015577
0.0133188
0.0107925
0.0081095
0.00545618
0.00315818
0.00145959
0.000694063
0.000963169
0.00231163
0.00460333
0.00751078
0.0106721
0.0135256
0.0157822
0.0170256
0.0173399
0.016991
0.0162455
0.0158102
0.0173914
0.0179893
0.0191514
0.0198801
0.0200725
0.0191633
0.0170347
0.01411
0.0104912
0.00701748
0.00391472
0.00175926
0.000674656
0.000701166
0.00182802
0.00362825
0.00598452
0.00841039
0.0107922
0.0129313
0.0148139
0.0164955
0.0180228
0.0194595
0.0208307
0.0220942
0.0232435
0.0242193
0.0250115
0.0255736
0.0258977
0.0259526
0.0257338
0.0252318
0.0244461
0.0233934
0.0220779
0.0205432
0.0187983
0.0169113
0.0148949
0.0128355
0.0107488
0.00873012
0.00679603
0.00503987
0.00347717
0.00218729
0.00118256
0.000517619
0.00019969
0.000250457
0.00067083
0.00144534
0.00256824
0.00398791
0.00569259
0.00760069
0.00969599
0.0118779
0.014128
0.01634
0.0184961
0.0204986
0.0223327
0.0239215
0.0252551
0.0262858
0.0270095
0.0274114
0.027493
0.0272707
0.0267509
0.0259751
0.0249541
0.0237539
0.0223844
0.0209161
0.0193287
0.0175756
0.0156082
0.0133496
0.0108023
0.0081186
0.00540433
0.00310683
0.0013527
0.000589586
0.000853678
0.00220567
0.00455561
0.00746594
0.0107293
0.0135825
0.0158935
0.0171342
0.0173867
0.0170436
0.0162012
0.015766
0.0173243
0.0179251
0.0191088
0.0198656
0.0201489
0.0192573
0.0171253
0.014223
0.0104689
0.00700148
0.00381592
0.00166537
0.000565239
0.000590033
0.00175916
0.00355656
0.0059838
0.00841011
0.0108213
0.0129608
0.0148332
0.0165148
0.01803
0.0194665
0.0208366
0.0221016
0.0232581
0.0242354
0.0250332
0.0255968
0.0259246
0.025981
0.0257633
0.0252626
0.0244749
0.0234231
0.0221024
0.0205682
0.0188153
0.0169283
0.0149017
0.012842
0.010744
0.00872481
0.00677966
0.00502292
0.00345079
0.00216041
0.00114917
0.000483894
0.000163373
0.000214056
0.000636238
0.00141088
0.00253989
0.00395983
0.00567417
0.00758259
0.00968983
0.0118719
0.0141346
0.0163466
0.0185143
0.0205165
0.0223596
0.0239479
0.0252869
0.0263167
0.0270421
0.0274428
0.0275224
0.0272989
0.0267741
0.0259972
0.0249682
0.0237667
0.0223947
0.0209267
0.019349
0.0175959
0.015642
0.0133829
0.0108128
0.00812842
0.00534683
0.00305162
0.00124631
0.000487223
0.000752284
0.0021015
0.00451585
0.00742095
0.0108177
0.0136478
0.0159947
0.0172121
0.0173972
0.0170221
0.016157
0.0157181
0.0172486
0.017859
0.0190421
0.0198498
0.0201329
0.0193418
0.0172112
0.0143994
0.0106487
0.00719173
0.00401012
0.0017793
0.000681739
0.000584022
0.00175347
0.00345456
0.00588452
0.0082904
0.0107016
0.0128749
0.0147395
0.0164584
0.0179633
0.0194228
0.0207865
0.0220693
0.0232256
0.0242202
0.0250179
0.0255987
0.0259264
0.0259981
0.0257804
0.0252912
0.0245037
0.0234589
0.0221384
0.0206061
0.0188535
0.0169636
0.0149374
0.0128712
0.0107736
0.00874577
0.00680098
0.00503544
0.0034636
0.00216592
0.00115488
0.000485156
0.000164695
0.000214466
0.000636569
0.00141373
0.00254253
0.00396757
0.00568159
0.00759628
0.00970313
0.011891
0.0141532
0.0163688
0.018536
0.0205384
0.0223812
0.0239654
0.0253043
0.0263261
0.0270513
0.0274408
0.0275203
0.0272836
0.026759
0.0259684
0.0249396
0.0237234
0.0223576
0.020867
0.0192988
0.0175048
0.0155591
0.0132555
0.0106866
0.00800515
0.00521973
0.00300518
0.00120029
0.000558656
0.000821961
0.00226313
0.00467407
0.0075936
0.0109869
0.0137508
0.0160958
0.0172236
0.0174085
0.0169814
0.0161166
0.0156657
0.0171668
0.0177875
0.0189701
0.0198329
0.0201156
0.019433
0.017304
0.0145898
0.0108429
0.00739717
0.00421982
0.00190233
0.00080754
0.000577531
0.00174732
0.00334442
0.00577273
0.00814591
0.0105549
0.0127538
0.014617
0.0163766
0.0178808
0.0193689
0.0207323
0.0220345
0.0231905
0.0242039
0.0250014
0.0256007
0.0259284
0.0260165
0.0257988
0.0253222
0.0245349
0.0234975
0.0221773
0.020647
0.0188947
0.0170017
0.0149759
0.0129027
0.0108055
0.00876841
0.00682402
0.00504895
0.00347743
0.00217187
0.00116104
0.000486519
0.000166123
0.000214909
0.000636927
0.0014168
0.00254538
0.00397593
0.00568961
0.00761108
0.00971749
0.0119115
0.0141733
0.0163928
0.0185596
0.0205621
0.0224045
0.0239844
0.025323
0.0263362
0.0270612
0.0274385
0.0275181
0.0272672
0.0267426
0.0259374
0.0249088
0.0236767
0.0223111
0.0207926
0.019225
0.0173851
0.0154408
0.0130993
0.0105326
0.00786577
0.00508248
0.00295504
0.0011506
0.000635793
0.000897201
0.00243766
0.00484492
0.00778004
0.0111696
0.013862
0.016205
0.0172361
0.0174208
0.0169374
0.016073
0.0156092
0.0170785
0.0177103
0.0188923
0.0198145
0.0200969
0.0195314
0.0174042
0.0147955
0.0110526
0.00761901
0.00444627
0.00203518
0.000943386
0.000570521
0.00174069
0.00322549
0.00565201
0.00798989
0.0103966
0.012623
0.0144846
0.0162882
0.0177918
0.0193108
0.0206738
0.0219968
0.0231526
0.0241862
0.0249835
0.0256029
0.0259306
0.0260363
0.0258188
0.0253557
0.0245685
0.0235392
0.0222193
0.0206911
0.0189393
0.0170429
0.0150175
0.0129367
0.01084
0.00879286
0.00684889
0.00506354
0.00349237
0.0021783
0.00116769
0.000487991
0.000167665
0.000215388
0.000637313
0.00142013
0.00254845
0.00398496
0.00569826
0.00762705
0.00973301
0.0119337
0.0141951
0.0164187
0.018585
0.0205877
0.0224296
0.024005
0.0253432
0.0263471
0.0270719
0.0274362
0.0275157
0.0272494
0.0267249
0.0259039
0.0248756
0.0236262
0.0222609
0.0207123
0.0191453
0.0172559
0.0153132
0.0129305
0.0103664
0.00771526
0.00493428
0.00290089
0.00109694
0.000719089
0.000978449
0.00262613
0.00502942
0.00798136
0.011367
0.0139822
0.0163229
0.0172496
0.0174341
0.0168898
0.0160259
0.0155482
0.0169832
0.017627
0.0188083
0.0197947
0.0200768
0.0196378
0.0175125
0.0150176
0.011279
0.00785856
0.00469079
0.00217864
0.00109008
0.000562952
0.00173353
0.00309706
0.00552165
0.00782141
0.0102255
0.0124817
0.0143416
0.0161928
0.0176957
0.0192479
0.0206106
0.0219562
0.0231117
0.0241671
0.0249643
0.0256053
0.0259329
0.0260578
0.0258403
0.0253918
0.0246048
0.0235842
0.0222647
0.0207388
0.0189874
0.0170873
0.0150625
0.0129734
0.0108772
0.00881925
0.00687575
0.0050793
0.0035085
0.00218525
0.00117487
0.00048958
0.00016933
0.000215904
0.00063773
0.00142372
0.00255178
0.00399471
0.0057076
0.0076443
0.00974976
0.0119577
0.0142185
0.0164466
0.0186124
0.0206152
0.0224568
0.0240271
0.0253651
0.0263588
0.0270835
0.0274336
0.0275131
0.0272301
0.0267058
0.0258677
0.0248396
0.0235717
0.0222068
0.0206256
0.0190593
0.0171164
0.0151753
0.0127483
0.0101868
0.00755273
0.00477424
0.00284241
0.001039
0.000809035
0.00106618
0.00282965
0.00522864
0.00819876
0.01158
0.0141119
0.0164502
0.0172642
0.0174484
0.0168385
0.015975
0.0154823
0.0168802
0.017537
0.0187176
0.0197733
0.020055
0.0197526
0.0176293
0.0152574
0.0115235
0.00811724
0.00495484
0.00233356
0.00124848
0.000554779
0.00172579
0.00295837
0.00538088
0.00763947
0.0100409
0.0123292
0.0141873
0.0160898
0.0175918
0.0191801
0.0205424
0.0219123
0.0230675
0.0241465
0.0249435
0.0256079
0.0259354
0.0260809
0.0258635
0.0254308
0.024644
0.0236328
0.0223136
0.0207903
0.0190393
0.0171354
0.015111
0.013013
0.0109174
0.00884776
0.00690475
0.00509632
0.00352591
0.00219275
0.00118263
0.000491297
0.000171128
0.000216463
0.00063818
0.00142759
0.00255536
0.00400524
0.0057177
0.00766292
0.00976784
0.0119836
0.0142438
0.0164768
0.018642
0.020645
0.0224861
0.024051
0.0253886
0.0263715
0.027096
0.0274308
0.0275103
0.0272094
0.0266852
0.0258287
0.0248008
0.0235128
0.0221483
0.020532
0.0189664
0.0169657
0.0150264
0.0125515
0.00999296
0.00737723
0.00460143
0.00277927
0.000976425
0.000906162
0.00116092
0.00304941
0.00544377
0.00843351
0.0118101
0.0142519
0.0165877
0.0172799
0.0174638
0.0167831
0.0159201
0.0154111
0.016769
0.0174398
0.0186196
0.0197502
0.0200315
0.0198766
0.0177555
0.0155164
0.0117875
0.00839657
0.00523997
0.00250084
0.00141953
0.000545953
0.00171744
0.00280862
0.00522888
0.00744301
0.00984144
0.0121645
0.0140206
0.0159785
0.0174797
0.0191068
0.0204688
0.0218649
0.0230197
0.0241243
0.024921
0.0256107
0.0259381
0.026106
0.0258885
0.0254729
0.0246863
0.0236853
0.0223665
0.0208459
0.0190953
0.0171872
0.0151634
0.0130559
0.0109608
0.00887854
0.00693606
0.00511469
0.00354472
0.00220084
0.001191
0.00049315
0.00017307
0.000217065
0.000638667
0.00143178
0.00255924
0.00401661
0.00572859
0.00768303
0.00978737
0.0120116
0.0142712
0.0165094
0.018674
0.0206772
0.0225178
0.0240769
0.0254141
0.0263852
0.0271096
0.0274278
0.0275073
0.027187
0.0266629
0.0257865
0.0247589
0.0234493
0.0220851
0.0204308
0.0188661
0.016803
0.0148657
0.012339
0.00978362
0.00718771
0.00441482
0.00271109
0.000908859
0.00101104
0.00126323
0.00328673
0.00567607
0.00868701
0.0120586
0.0144032
0.0167361
0.0172969
0.0174805
0.0167233
0.0158607
0.0153342
0.0166527
0.0173311
0.0184109
0.0195802
0.0199442
0.0198865
0.0179483
0.0157906
0.0121872
0.00880506
0.00567648
0.00284579
0.00167704
0.000669645
0.00169483
0.00268088
0.00501573
0.00718425
0.0095842
0.0119212
0.0138141
0.0158133
0.0173377
0.0189971
0.0203638
0.0217779
0.0229477
0.0240698
0.0248821
0.0255893
0.0259324
0.0261157
0.0259127
0.025509
0.0247344
0.0237406
0.0224305
0.0209119
0.0191666
0.0172557
0.015234
0.01312
0.0110245
0.00893374
0.00698935
0.00515919
0.00358685
0.00223569
0.00122384
0.000521554
0.000200275
0.000243325
0.000664516
0.00146011
0.00258748
0.0040499
0.00576138
0.007722
0.00982457
0.0120544
0.0143102
0.0165518
0.0187102
0.0207133
0.0225451
0.0241
0.0254264
0.0263893
0.0271014
0.0274081
0.0274751
0.0271414
0.0266057
0.0257156
0.0246775
0.023353
0.0219877
0.0203018
0.0187133
0.0166026
0.0146215
0.0120671
0.00949454
0.00692686
0.00421877
0.00260384
0.000938912
0.0011677
0.001523
0.00364962
0.0060423
0.00907145
0.0123509
0.0146417
0.0168056
0.017287
0.0173757
0.0165846
0.015796
0.0152601
0.0165313
0.0172093
0.0181798
0.0193458
0.0198229
0.0197616
0.0182272
0.0160765
0.0128648
0.00950027
0.00640219
0.00358937
0.00208859
0.00109105
0.00163836
0.00262369
0.00461249
0.00677402
0.00910909
0.0114398
0.0134567
0.0154529
0.0171092
0.0187679
0.0202011
0.0216147
0.0228302
0.0239519
0.0248119
0.0255187
0.0259095
0.0260928
0.0259333
0.0255297
0.0247908
0.0237973
0.0225129
0.0209947
0.0192643
0.0173541
0.0153373
0.013224
0.011126
0.0090359
0.00708461
0.00525504
0.00367464
0.00232391
0.00130543
0.000603369
0.000278285
0.000321322
0.000741501
0.00153683
0.0026646
0.00412655
0.00583751
0.0077975
0.00989594
0.0121251
0.0143708
0.0166116
0.0187525
0.0207549
0.0225614
0.0241158
0.0254101
0.0263727
0.0270484
0.0273551
0.0273844
0.0270508
0.0264796
0.0255897
0.0245196
0.0231955
0.0217768
0.0200917
0.0183685
0.0162608
0.0141218
0.011574
0.00900548
0.00644613
0.00402003
0.00240867
0.00119363
0.00141619
0.00214067
0.00425226
0.00671207
0.00972399
0.0127119
0.0149934
0.0167815
0.0172639
0.0172197
0.0164307
0.0157254
0.0151897
0.0163815
0.0170591
0.0179606
0.019123
0.0197624
0.0196958
0.0185284
0.0163852
0.0135964
0.010251
0.00718584
0.00439231
0.002533
0.00154609
0.00157739
0.00256194
0.00417705
0.00633103
0.00859606
0.0109199
0.0130708
0.0150636
0.0168626
0.0185203
0.0200254
0.0214385
0.0227033
0.0238246
0.024736
0.0254426
0.0258849
0.0260681
0.0259556
0.0255521
0.0248518
0.0238586
0.0226018
0.0210842
0.0193698
0.0174603
0.0154489
0.0133363
0.0112356
0.00914622
0.00718747
0.00535853
0.00376943
0.00241918
0.00139353
0.000691716
0.000362524
0.000405546
0.000824633
0.00161969
0.00274788
0.00420932
0.00591971
0.00787902
0.009973
0.0122014
0.0144362
0.0166763
0.0187981
0.0207999
0.022579
0.0241328
0.0253926
0.0263548
0.0269912
0.0272978
0.0272864
0.0269529
0.0263434
0.0254538
0.024349
0.0230254
0.021549
0.0198648
0.0179962
0.0158917
0.0135821
0.0110414
0.00847737
0.00592702
0.00380542
0.00219792
0.00146868
0.00168452
0.00280765
0.00490302
0.00743533
0.0104286
0.0131017
0.0153732
0.0168215
0.0173064
0.0170964
0.01631
0.0156344
0.015099
0.0159196
0.0165965
0.0177795
0.0189394
0.0201013
0.0200444
0.019344
0.0172244
0.0144663
0.0111441
0.00773234
0.00495109
0.0025329
0.00154502
0.00113512
0.00210958
0.00358177
0.00572492
0.00808696
0.0104041
0.0127318
0.0147217
0.0166475
0.0183044
0.0198878
0.0213004
0.0226452
0.0237661
0.0247616
0.025468
0.0259863
0.0261695
0.0261158
0.0257125
0.025047
0.0240542
0.0228048
0.0212878
0.0195537
0.0176448
0.0155912
0.0134794
0.0113219
0.00923332
0.00721349
0.00538524
0.00374144
0.00239169
0.00132713
0.00062558
0.000279699
0.000322705
0.000749618
0.00154437
0.0027026
0.00416349
0.00591961
0.00787818
0.0100241
0.0122516
0.0145338
0.016773
0.0189278
0.0209289
0.0227193
0.0242725
0.0255188
0.0264807
0.0270797
0.0273861
0.0273185
0.0269852
0.0263085
0.0254193
0.0242478
0.0229246
0.0213737
0.0196903
0.0176873
0.0155854
0.0130715
0.0105374
0.00782503
0.00528613
0.0032362
0.00164095
0.00128576
0.00150647
0.00316952
0.00525731
0.00819149
0.0111655
0.0139144
0.0161632
0.0172659
0.0177387
0.017048
0.0162623
0.0152988
0.0147639
0.0154217
0.0160984
0.0175318
0.0187148
0.0204501
0.0203784
0.0202284
0.0181353
0.015413
0.0121159
0.00829967
0.00553127
0.00250282
0.00151325
0.000619694
0.0015829
0.00291881
0.00505018
0.00754655
0.00985644
0.0123839
0.0143707
0.016425
0.0180809
0.019742
0.0211541
0.0225868
0.0237072
0.0247951
0.0255012
0.0261027
0.0262858
0.0262962
0.025893
0.0252649
0.0242725
0.0230297
0.0215133
0.0197559
0.0178478
0.015746
0.0136351
0.0114134
0.00932566
0.00723702
0.00540951
0.00370421
0.00235501
0.00124675
0.000545483
0.000180922
0.00022391
0.000659758
0.00145419
0.00264644
0.00410674
0.00591472
0.0078725
0.0100775
0.0123041
0.0146406
0.016879
0.0190723
0.0210725
0.0228774
0.02443
0.0256628
0.0266243
0.0271832
0.0274895
0.0273607
0.0270274
0.026277
0.0253881
0.0241429
0.0228203
0.0211976
0.0195151
0.0173752
0.0152762
0.012535
0.010008
0.00710758
0.00458109
0.00258808
0.0010064
0.00105863
0.00128523
0.00353331
0.0056134
0.0090058
0.011959
0.0147955
0.0170189
0.0177033
0.018189
0.016961
0.0161499
0.014937
0.0144021
0.0149346
0.0156296
0.0170599
0.018418
0.0201475
0.0205121
0.0204227
0.018777
0.0161082
0.0130252
0.00918741
0.00626247
0.00318799
0.00176106
0.000805938
0.00129444
0.00259908
0.00443918
0.00695
0.00919386
0.011751
0.0137782
0.0158423
0.0175332
0.0191693
0.0206099
0.0220488
0.023211
0.0243057
0.0250693
0.025677
0.0259277
0.0259431
0.0256113
0.0249864
0.0240632
0.0228215
0.0213673
0.0196088
0.0177529
0.0156482
0.013578
0.0113522
0.00929418
0.00720105
0.00539343
0.00368404
0.00234648
0.00123528
0.000538464
0.000172599
0.000213012
0.000649371
0.00143326
0.00262766
0.00406776
0.00587904
0.00780512
0.0100138
0.012196
0.0145358
0.0167172
0.0189126
0.0208452
0.0226504
0.0241289
0.0253602
0.0262466
0.0268022
0.0270392
0.0269056
0.0265155
0.0257597
0.024832
0.0235816
0.022234
0.0206426
0.0189213
0.0167725
0.0146087
0.0118339
0.00932433
0.00640228
0.00410877
0.00213789
0.000994652
0.00110411
0.0017855
0.00408136
0.00639507
0.00981738
0.012661
0.0154634
0.0173174
0.0179482
0.0180198
0.0167948
0.0157889
0.0145784
0.0140112
0.0144086
0.0151233
0.0165503
0.0180975
0.0198209
0.0206564
0.0205716
0.0194678
0.0168173
0.0139927
0.010178
0.00706128
0.00400456
0.00204954
0.0011006
0.00101687
0.00231658
0.00380232
0.00630333
0.00846095
0.0110099
0.0130832
0.0151436
0.0168808
0.018516
0.0199899
0.0214281
0.0226389
0.0237331
0.0245637
0.0251711
0.0255006
0.0255159
0.0252672
0.0246426
0.0237999
0.0225588
0.021177
0.0194193
0.017624
0.0155203
0.0134975
0.0112728
0.0092492
0.00715706
0.00537252
0.00366394
0.00233987
0.00122921
0.000537549
0.000171858
0.000209262
0.000645414
0.00141705
0.00261089
0.00402754
0.00583796
0.00772723
0.00993489
0.0120655
0.0144042
0.0165193
0.0187136
0.0205677
0.0223721
0.0237643
0.024995
0.0257942
0.0263494
0.0265058
0.0263723
0.025916
0.0251605
0.0241878
0.022938
0.0215612
0.0199706
0.0181979
0.016053
0.0138131
0.0110471
0.00856473
0.00565423
0.00364456
0.00168197
0.00106677
0.00117456
0.0024045
0.00468685
0.00728527
0.0106867
0.0133993
0.0161828
0.0175896
0.0182127
0.0178371
0.0166154
0.0153991
0.0141912
0.0135892
0.0138406
0.0145766
0.016
0.0177514
0.0194681
0.0208122
0.0207325
0.0202139
0.0175829
0.0150374
0.0112476
0.00792387
0.00488633
0.00236104
0.0014188
0.00071714
0.00201152
0.00311461
0.00560504
0.00766953
0.0102096
0.0123328
0.014389
0.0161762
0.0178105
0.0193204
0.0207579
0.0220212
0.0231148
0.0240177
0.0246248
0.0250393
0.0250546
0.0248957
0.0242713
0.0235157
0.0222752
0.0209715
0.0192148
0.0174849
0.0153823
0.0134106
0.011187
0.00920063
0.00710956
0.00534994
0.00364224
0.00233274
0.00122264
0.000536561
0.000171057
0.000205212
0.000641142
0.00139955
0.00259278
0.0039841
0.0057936
0.00764313
0.00984965
0.0119245
0.014262
0.0163056
0.0184988
0.020268
0.0220715
0.0233707
0.0246007
0.0253056
0.0258606
0.0259299
0.0257965
0.0252687
0.0245136
0.0234921
0.0222429
0.0208347
0.0192449
0.0174167
0.015276
0.012954
0.0101975
0.00774448
0.00484646
0.00314328
0.00118964
0.00114465
0.00125063
0.00307292
0.00534068
0.00824654
0.0116255
0.0141967
0.0169597
0.0178835
0.0184982
0.0176399
0.0164216
0.0149781
0.013773
0.0131335
0.0132901
0.0140319
0.015313
0.0171013
0.0188272
0.0203541
0.0206288
0.0203529
0.0182969
0.0158793
0.0124868
0.00909519
0.00606732
0.00332303
0.00198941
0.00103982
0.00177594
0.00271477
0.00479025
0.00680266
0.00916592
0.0113013
0.0133131
0.0151226
0.0167152
0.0182385
0.0196605
0.0209437
0.022043
0.0229738
0.0236171
0.0240646
0.0241448
0.0240209
0.0234861
0.0227646
0.0216324
0.0203597
0.0187225
0.0170187
0.0150387
0.0130877
0.0109811
0.00900991
0.00702175
0.00527249
0.00364568
0.00234233
0.00128423
0.000600581
0.000252955
0.000285819
0.000702565
0.00145555
0.00259247
0.00397342
0.00569272
0.00752609
0.00961513
0.0116675
0.0138697
0.0158847
0.0179363
0.0196718
0.0213398
0.0226021
0.0237144
0.0243822
0.0248469
0.0248822
0.0246927
0.0241373
0.0233635
0.0223234
0.021083
0.019663
0.0181152
0.016262
0.0141503
0.0118028
0.0091823
0.00675628
0.00422385
0.00265632
0.00124388
0.00143068
0.00197714
0.00403054
0.00639312
0.00940963
0.0125038
0.015003
0.0172503
0.0179706
0.0182018
0.0171655
0.0158884
0.0143994
0.0133213
0.0126706
0.0125456
0.0132862
0.0144539
0.0162314
0.0182238
0.0197336
0.0206387
0.0203616
0.0191569
0.0167618
0.0138937
0.0105358
0.00734785
0.00463248
0.00257276
0.00163513
0.00147039
0.00240325
0.00381902
0.00581819
0.00789444
0.0100197
0.011969
0.0137757
0.0153474
0.0168699
0.0182734
0.0195559
0.0206792
0.0216096
0.0223253
0.0227725
0.0229683
0.0228445
0.0224602
0.0217391
0.0207814
0.0195095
0.0180588
0.0163561
0.0145622
0.0126124
0.0106796
0.00870962
0.00687158
0.00512336
0.00361292
0.00231035
0.00132626
0.000643018
0.00032043
0.000353275
0.000742093
0.00149463
0.00255007
0.0039302
0.00551801
0.00735028
0.00926582
0.011317
0.013316
0.0153298
0.0171644
0.0188988
0.0203538
0.0216153
0.0225366
0.023204
0.0235157
0.023551
0.023259
0.0227039
0.0218855
0.020846
0.0196128
0.0181936
0.0166545
0.0148042
0.0127241
0.0103878
0.0079864
0.00557631
0.00362023
0.00206365
0.00151273
0.00169414
0.00302396
0.00505407
0.00773522
0.0107202
0.0134836
0.0159577
0.0174693
0.0181848
0.0177869
0.0167628
0.0151778
0.0136979
0.0126774
0.0120277
0.0113483
0.0120852
0.0134081
0.0151899
0.0178105
0.0193244
0.0213493
0.0210761
0.020639
0.0182846
0.0154692
0.012149
0.00831553
0.00562218
0.00255343
0.00161421
0.000625893
0.00154328
0.00259455
0.00457734
0.00660698
0.00872189
0.0106355
0.0124394
0.0139296
0.0154508
0.0168577
0.0181392
0.0193327
0.0202625
0.0210908
0.0215378
0.0218767
0.0217532
0.0215286
0.0208084
0.0200135
0.0187429
0.0174467
0.0157456
0.0140891
0.012141
0.0103229
0.00835461
0.00660607
0.00485934
0.00341244
0.00211097
0.00116445
0.000481775
0.000170388
0.000203216
0.000575554
0.00132745
0.00233665
0.0037156
0.00522526
0.00705595
0.00886067
0.01091
0.0127675
0.0147794
0.0164476
0.0181804
0.0194541
0.0207144
0.0214537
0.0221203
0.0222658
0.0223008
0.0218745
0.0213197
0.0204131
0.0193744
0.018126
0.0167079
0.015245
0.0133977
0.0113305
0.00900536
0.00658797
0.00419635
0.00250968
0.000972862
0.00115427
0.00134401
0.00366704
0.00568203
0.00910887
0.0120618
0.014962
0.0173969
0.0183428
0.0190495
0.0176326
0.0165996
0.0143443
0.0128519
0.0116334
0.0109861
0.0103064
0.0109947
0.0123108
0.0141451
0.0167442
0.0187239
0.020734
0.0213209
0.0209151
0.0193876
0.0166027
0.0136531
0.00984839
0.00687134
0.00380595
0.00209032
0.00107474
0.00112222
0.00215057
0.0035016
0.00551948
0.00728599
0.00919019
0.0107927
0.0122715
0.0136565
0.0150624
0.0162753
0.017468
0.0184026
0.0192304
0.0197556
0.0200942
0.0201158
0.0198913
0.0193712
0.0185769
0.0175454
0.0162501
0.0148081
0.0131528
0.0114636
0.00964677
0.00791691
0.00616959
0.00462175
0.00317586
0.00201732
0.00107146
0.000462971
0.000151801
0.000182068
0.000554146
0.00122454
0.00223303
0.00345588
0.00496449
0.00657563
0.00837909
0.010163
0.0120192
0.0137422
0.0154093
0.0168555
0.0181284
0.0191305
0.0198693
0.0203296
0.0204749
0.020374
0.019948
0.0193389
0.018433
0.0174247
0.0161773
0.0148673
0.0134208
0.011746
0.0096901
0.0076643
0.00525808
0.00343727
0.00177362
0.00107814
0.00129039
0.00230978
0.00463644
0.00707981
0.0104827
0.0132499
0.0161216
0.0178718
0.0187858
0.0186728
0.0172646
0.0157199
0.0134821
0.0118773
0.0106649
0.0100417
0.00918134
0.00981721
0.011128
0.0130169
0.0155928
0.0180755
0.0200696
0.0215853
0.0211868
0.0205749
0.0178184
0.0152772
0.0115085
0.00822023
0.00518302
0.00261233
0.00160692
0.000693638
0.00171561
0.00235972
0.00436519
0.00573264
0.00762915
0.00900345
0.010481
0.0117189
0.0131237
0.0142625
0.0154543
0.0163943
0.0172214
0.0178311
0.0181694
0.0183476
0.0181233
0.0178192
0.0170256
0.0162522
0.0149579
0.0137958
0.0121418
0.0107321
0.00891669
0.00744426
0.00569826
0.00436519
0.00292038
0.00191619
0.000971044
0.000442665
0.00013173
0.000159231
0.000531029
0.00111341
0.00212114
0.00317542
0.00468289
0.00605697
0.00785907
0.00935631
0.0112111
0.0126223
0.0142881
0.0154249
0.0166969
0.0174201
0.0181584
0.0183959
0.0185411
0.0182934
0.0178677
0.0172
0.0162947
0.0153194
0.0140729
0.0128798
0.0114344
0.00995483
0.00790768
0.00622621
0.00383549
0.00265459
0.00100269
0.00123668
0.00144567
0.00337855
0.00568325
0.0085963
0.0119661
0.0145291
0.0173708
0.0183632
0.0192642
0.018266
0.0168672
0.0147699
0.0125512
0.0108259
0.0096191
0.00902184
0.00818797
0.00881421
0.00997125
0.0118436
0.0141681
0.0167064
0.0188446
0.0205265
0.0209993
0.0205754
0.0189178
0.0164823
0.0134646
0.0101471
0.00711899
0.00440384
0.00264094
0.00154077
0.00148505
0.00196898
0.0030825
0.00434405
0.00574871
0.00706624
0.00829634
0.00950514
0.0107099
0.0118338
0.0128916
0.0138321
0.0146221
0.0152475
0.0156515
0.0158596
0.0158005
0.0155381
0.0149966
0.0142733
0.0132966
0.0121889
0.0108893
0.00953424
0.00807674
0.00665467
0.00523521
0.00394424
0.00276135
0.00178744
0.00101156
0.000498908
0.000245052
0.000271995
0.000580256
0.00114536
0.00197318
0.00299442
0.00422269
0.00555037
0.00700228
0.00844352
0.00991357
0.011264
0.0125507
0.0136275
0.0145651
0.0152343
0.0157159
0.0159105
0.0159
0.0156243
0.0151555
0.014477
0.0136404
0.0126721
0.0115744
0.0104045
0.00916253
0.00773214
0.00612682
0.00454187
0.00299974
0.00197032
0.00140504
0.00182612
0.00290901
0.00500349
0.00750759
0.0104837
0.0133161
0.0158121
0.0176754
0.0185059
0.0185066
0.0173444
0.0156778
0.0135104
0.0114651
0.00974916
0.00868274
0.00809105
0.00653582
0.00715972
0.0080813
0.00993523
0.012546
0.015049
0.0182663
0.0199336
0.0217732
0.0213722
0.0208155
0.0184268
0.0156975
0.01243
0.00872832
0.00604552
0.00305701
0.00196299
0.000746854
0.00122038
0.00156049
0.00281007
0.00372848
0.00504228
0.00590307
0.0071108
0.00807931
0.00920216
0.0101503
0.0110899
0.0118887
0.0125136
0.0130426
0.0132505
0.0134199
0.0131577
0.0129271
0.0122045
0.0115934
0.0104867
0.00957556
0.00822174
0.00714222
0.0057214
0.00463707
0.00334723
0.00242758
0.00145453
0.000846409
0.000334209
0.000136357
0.000163276
0.000408392
0.000972998
0.0016212
0.00264154
0.00358692
0.00491343
0.00600257
0.00744254
0.00850184
0.00985113
0.010717
0.0117928
0.0123395
0.0130082
0.0131669
0.0133614
0.0131279
0.0128524
0.0122819
0.011604
0.0107963
0.00982883
0.00890479
0.00773591
0.0068211
0.00539494
0.00422837
0.00265817
0.00181836
0.000804973
0.00135117
0.00177436
0.0041269
0.00619762
0.00955331
0.0124846
0.0152925
0.0177411
0.018739
0.0195398
0.0182797
0.017122
0.0143295
0.0121933
0.00973431
0.00803302
0.00712153
0.00653205
0.00520809
0.00569637
0.00661469
0.00822939
0.010804
0.0133949
0.0166321
0.0189895
0.0209281
0.0216834
0.0212069
0.0199352
0.0172527
0.0145379
0.0108267
0.00788343
0.00482027
0.00284102
0.00153727
0.000972427
0.00124684
0.00167671
0.00255731
0.00332197
0.00417749
0.00498528
0.00593986
0.00676929
0.007711
0.00847201
0.00927121
0.00984663
0.0103825
0.0106728
0.0108551
0.0107975
0.0105845
0.0101672
0.00957674
0.00884452
0.00795533
0.00700624
0.00594809
0.00491985
0.00385448
0.00290322
0.00199844
0.00127298
0.000674336
0.000290613
9.5912e-05
0.000116323
0.000357854
0.000779519
0.00141756
0.00217229
0.00310169
0.00406777
0.00513644
0.0061603
0.00719641
0.0081199
0.00896203
0.00964978
0.0101744
0.0105359
0.0106764
0.0106782
0.0104321
0.0100991
0.00952305
0.00892821
0.00812229
0.00736907
0.00645544
0.00562468
0.00471568
0.00379236
0.00266264
0.00188063
0.00110359
0.00114253
0.00177674
0.00318974
0.00562617
0.00815781
0.0115395
0.0141523
0.0169281
0.0184322
0.0193596
0.0190474
0.0176869
0.0157622
0.0129364
0.0105975
0.00816853
0.00663215
0.00572409
0.00524884
0.00393857
0.00432833
0.00522779
0.00666388
0.00898854
0.0116172
0.0146432
0.0175377
0.0196098
0.0212857
0.0212455
0.0208686
0.0187429
0.0164784
0.0131936
0.0100551
0.00705882
0.00438146