/*--------------------------------*- C++ -*----------------------------------*\
| =========                 |                                                 |
| \\      /  F ield         | OpenFOAM: The Open Source CFD Toolbox           |
|  \\    /   O peration     | Version:  v2106                                 |
|   \\  /    A nd           | Website:  www.openfoam.com                      |
|    \\/     M anipulation  |                                                 |
\*---------------------------------------------------------------------------*/
FoamFile
{
    version     2.0;
    format      ascii;
    arch        "LSB;label=32;scalar=64";
    class       volScalarField;
    location    "0";
    object      expGpCoeffs37;
}
// * * * * * * * * * * * * * * * * * * * * * * * * * * * * * * * * * * * * * //

dimensions      [0 0 0 0 0 0 0];

internalField   nonuniform List<scalar> 
8000
(
9.58714e-05
9.28169e-05
8.43639e-05
6.88377e-05
4.92417e-05
2.90837e-05
1.50046e-05
6.2113e-06
1.4061e-06
-1.40994e-07
-2.17539e-06
-4.85409e-06
-9.1139e-06
-1.49144e-05
-2.1502e-05
-2.88291e-05
-3.61941e-05
-4.36393e-05
-5.14971e-05
-5.98059e-05
-7.00651e-05
-8.22658e-05
-9.82945e-05
-0.000118118
-0.00014267
-0.000172207
-0.000207138
-0.000247511
-0.000294173
-0.000347197
-0.000407549
-0.000475292
-0.0005513
-0.00063562
-0.000728943
-0.000831293
-0.000943083
-0.0010643
-0.00119497
-0.00133503
-0.00148401
-0.00164178
-0.00180727
-0.00198032
-0.00215916
-0.00234358
-0.00253113
-0.00272153
-0.0029117
-0.00310132
-0.00328677
-0.00346767
-0.00364003
-0.00380348
-0.00395388
-0.00409086
-0.00421046
-0.00431235
-0.00439311
-0.00445248
-0.00448798
-0.00449944
-0.00448572
-0.00444677
-0.00438301
-0.00429457
-0.00418352
-0.00405012
-0.00389798
-0.00372749
-0.00354338
-0.00334614
-0.00314113
-0.00292887
-0.00272015
-0.00251641
-0.00234948
-0.00222012
-0.00216331
-0.00217848
-0.00226805
-0.00243034
-0.00263909
-0.00289313
-0.00314821
-0.00340367
-0.00361298
-0.00377386
-0.00386191
-0.00387618
-0.00381492
-0.00367881
-0.00348068
-0.00321564
-0.002915
-0.0025719
-0.00222599
-0.00188769
-0.00162872
-0.00147263
9.61173e-05
9.30635e-05
8.51213e-05
6.96057e-05
4.88817e-05
2.87075e-05
1.44932e-05
5.67881e-06
1.35605e-06
-1.93237e-07
-2.03123e-06
-4.70678e-06
-9.00299e-06
-1.48023e-05
-2.14815e-05
-2.88099e-05
-3.61957e-05
-4.36419e-05
-5.14192e-05
-5.9727e-05
-6.98256e-05
-8.20234e-05
-9.79187e-05
-0.000117739
-0.000142265
-0.000171799
-0.000206673
-0.000247041
-0.000293623
-0.00034664
-0.000406919
-0.000474654
-0.000550603
-0.000634911
-0.000728198
-0.000830535
-0.00094232
-0.00106352
-0.00119423
-0.00133427
-0.00148334
-0.00164109
-0.00180673
-0.00197975
-0.00215881
-0.0023432
-0.00253102
-0.0027214
-0.0029119
-0.00310149
-0.00328731
-0.00346818
-0.00364093
-0.00380435
-0.00395514
-0.0040921
-0.00421205
-0.00431393
-0.00439497
-0.00445432
-0.00448999
-0.00450146
-0.00448777
-0.00444882
-0.00438495
-0.00429652
-0.00418519
-0.00405182
-0.00389928
-0.00372881
-0.00354422
-0.00334701
-0.00314148
-0.00292924
-0.00271909
-0.00251537
-0.00234451
-0.00221517
-0.00215657
-0.00217179
-0.00226291
-0.00242527
-0.00263693
-0.00289105
-0.00315049
-0.00340596
-0.00361862
-0.00377941
-0.00386832
-0.00388242
-0.00382071
-0.00368438
-0.00348516
-0.00321985
-0.00291649
-0.00257325
-0.00222375
-0.00188549
-0.00161612
-0.00146007
9.63829e-05
9.33298e-05
8.59393e-05
7.0435e-05
4.84929e-05
2.83014e-05
1.39409e-05
5.10381e-06
1.302e-06
-2.49651e-07
-1.87555e-06
-4.54771e-06
-8.88323e-06
-1.46813e-05
-2.14593e-05
-2.87891e-05
-3.61974e-05
-4.36448e-05
-5.1335e-05
-5.96417e-05
-6.9567e-05
-8.17616e-05
-9.75129e-05
-0.00011733
-0.000141828
-0.000171357
-0.000206172
-0.000246534
-0.00029303
-0.000346039
-0.000406239
-0.000473964
-0.000549849
-0.000634146
-0.000727393
-0.000829716
-0.000941496
-0.00106268
-0.00119343
-0.00133345
-0.00148261
-0.00164035
-0.00180615
-0.00197915
-0.00215843
-0.00234279
-0.00253091
-0.00272126
-0.00291211
-0.00310168
-0.00328788
-0.00346873
-0.0036419
-0.0038053
-0.0039565
-0.00409344
-0.00421377
-0.00431563
-0.00439697
-0.00445631
-0.00449217
-0.00450363
-0.00448998
-0.00445104
-0.00438704
-0.00429862
-0.004187
-0.00405365
-0.00390068
-0.00373023
-0.00354512
-0.00334794
-0.00314186
-0.00292965
-0.00271794
-0.00251425
-0.00233915
-0.00220983
-0.0021493
-0.00216457
-0.00225737
-0.0024198
-0.00263461
-0.00288881
-0.00315295
-0.00340843
-0.00362472
-0.0037854
-0.00387524
-0.00388916
-0.00382697
-0.00369039
-0.00348999
-0.00322441
-0.00291809
-0.00257471
-0.00222134
-0.00188312
-0.00160251
-0.00144649
9.66698e-05
9.36174e-05
8.68225e-05
7.13306e-05
4.80731e-05
2.78628e-05
1.33445e-05
4.48289e-06
1.24364e-06
-3.10569e-07
-1.70745e-06
-4.37594e-06
-8.75391e-06
-1.45506e-05
-2.14354e-05
-2.87667e-05
-3.61992e-05
-4.36478e-05
-5.12441e-05
-5.95496e-05
-6.92877e-05
-8.1479e-05
-9.70747e-05
-0.000116888
-0.000141355
-0.00017088
-0.00020563
-0.000245986
-0.000292388
-0.00034539
-0.000405504
-0.00047322
-0.000549036
-0.00063332
-0.000726524
-0.000828832
-0.000940607
-0.00106178
-0.00119256
-0.00133257
-0.00148183
-0.00163954
-0.00180552
-0.00197849
-0.00215802
-0.00234235
-0.00253078
-0.00272111
-0.00291233
-0.00310187
-0.0032885
-0.00346933
-0.00364294
-0.00380632
-0.00395796
-0.00409488
-0.00421562
-0.00431746
-0.00439913
-0.00445847
-0.00449452
-0.00450598
-0.00449237
-0.00445344
-0.0043893
-0.00430089
-0.00418896
-0.00405562
-0.00390219
-0.00373177
-0.0035461
-0.00334894
-0.00314227
-0.00293009
-0.0027167
-0.00251304
-0.00233336
-0.00220407
-0.00214144
-0.00215676
-0.00225138
-0.00241389
-0.0026321
-0.00288638
-0.00315561
-0.0034111
-0.0036313
-0.00379187
-0.00388272
-0.00389644
-0.00383372
-0.00369687
-0.00349521
-0.00322933
-0.00291982
-0.00257628
-0.00221873
-0.00188056
-0.00158782
-0.00143184
9.69795e-05
9.39279e-05
8.77762e-05
7.25858e-05
4.76198e-05
2.73892e-05
1.27006e-05
3.8124e-06
1.18062e-06
-3.76351e-07
-1.52593e-06
-4.19045e-06
-8.61426e-06
-1.44095e-05
-2.14096e-05
-2.87426e-05
-3.62012e-05
-4.36511e-05
-5.1146e-05
-5.94502e-05
-6.89862e-05
-8.11738e-05
-9.66015e-05
-0.000116411
-0.000140845
-0.000170366
-0.000205045
-0.000245395
-0.000291696
-0.000344689
-0.000404711
-0.000472416
-0.000548158
-0.000632429
-0.000725586
-0.000827878
-0.000939646
-0.0010608
-0.00119163
-0.00133161
-0.00148099
-0.00163868
-0.00180483
-0.00197778
-0.00215757
-0.00234188
-0.00253065
-0.00272094
-0.00291258
-0.00310209
-0.00328918
-0.00346997
-0.00364407
-0.00380742
-0.00395955
-0.00409645
-0.00421762
-0.00431945
-0.00440146
-0.00446079
-0.00449706
-0.00450852
-0.00449495
-0.00445602
-0.00439173
-0.00430334
-0.00419107
-0.00405775
-0.00390382
-0.00373343
-0.00354715
-0.00335003
-0.00314271
-0.00293056
-0.00271536
-0.00251173
-0.0023271
-0.00219784
-0.00213296
-0.00214834
-0.00224491
-0.0024075
-0.00262938
-0.00288376
-0.00315848
-0.00341398
-0.00363841
-0.00379886
-0.00389079
-0.00390429
-0.00384101
-0.00370388
-0.00350085
-0.00323464
-0.00292169
-0.00257798
-0.00221625
-0.00187779
-0.00157195
-0.00141601
9.84567e-05
9.5464e-05
9.11039e-05
7.57193e-05
4.84909e-05
2.84114e-05
1.22811e-05
3.42019e-06
1.12145e-06
-4.39124e-07
-1.33481e-06
-3.99691e-06
-8.46476e-06
-1.42494e-05
-2.13782e-05
-2.87139e-05
-3.62033e-05
-4.36546e-05
-5.104e-05
-5.93428e-05
-6.86606e-05
-8.08442e-05
-9.60906e-05
-0.000115896
-0.000140532
-0.000170155
-0.000204766
-0.000245265
-0.000291467
-0.00034467
-0.000404603
-0.000472594
-0.000548262
-0.00063291
-0.000726022
-0.000828794
-0.000940555
-0.0010623
-0.00119318
-0.00133387
-0.00148334
-0.00164186
-0.00180819
-0.00198205
-0.00216209
-0.00234741
-0.0025365
-0.00272783
-0.00291987
-0.00311041
-0.00329794
-0.00347977
-0.00365432
-0.00381861
-0.00397121
-0.00410889
-0.00423049
-0.00433296
-0.00441532
-0.00447504
-0.00451152
-0.0045232
-0.00450965
-0.00447067
-0.00440625
-0.00431751
-0.00420492
-0.00407106
-0.00391665
-0.00374549
-0.00355863
-0.00336059
-0.00315265
-0.00293947
-0.00272253
-0.00251783
-0.00232035
-0.00219112
-0.0021238
-0.00213924
-0.00223793
-0.00240061
-0.00262645
-0.00288093
-0.00316274
-0.00341785
-0.00365049
-0.00380792
-0.00390171
-0.00391329
-0.00384967
-0.0037115
-0.00350818
-0.00324009
-0.00292442
-0.00257894
-0.00221566
-0.00187622
-0.00156036
-0.00140431
0.000102488
9.95492e-05
9.52116e-05
7.91031e-05
5.19427e-05
3.01812e-05
1.40986e-05
3.91513e-06
1.6313e-06
-3.65566e-07
-1.25955e-06
-3.85989e-06
-8.32609e-06
-1.40164e-05
-2.11422e-05
-2.85731e-05
-3.60675e-05
-4.37859e-05
-5.11642e-05
-5.97846e-05
-6.90955e-05
-8.16614e-05
-9.70136e-05
-0.0001175
-0.000142396
-0.000173123
-0.000207727
-0.00024983
-0.000296024
-0.000351483
-0.000411404
-0.000482463
-0.000558117
-0.000646797
-0.000739892
-0.000847795
-0.000959534
-0.0010876
-0.00121845
-0.00136669
-0.00151614
-0.00168337
-0.00184967
-0.0020333
-0.0022133
-0.00240919
-0.00259824
-0.00280064
-0.00299264
-0.00319433
-0.00338182
-0.00357443
-0.00374896
-0.00392315
-0.00407572
-0.00422195
-0.00434353
-0.0044527
-0.00453505
-0.00459925
-0.00463572
-0.00464934
-0.0046358
-0.00459608
-0.00453167
-0.00443953
-0.00432696
-0.00418718
-0.0040328
-0.00385354
-0.00366672
-0.00345885
-0.00325095
-0.00302676
-0.00280985
-0.00259392
-0.00238736
-0.00224967
-0.0021752
-0.00219074
-0.00228681
-0.0024536
-0.00267835
-0.00293389
-0.00321701
-0.00346545
-0.00369701
-0.00384415
-0.00393703
-0.00393673
-0.00387241
-0.00372335
-0.00351952
-0.00324362
-0.00292766
-0.00257835
-0.00221502
-0.00187484
-0.00155904
-0.00140318
0.00010684
0.000103961
9.96473e-05
8.27571e-05
5.56701e-05
3.20924e-05
1.60612e-05
4.44958e-06
2.18186e-06
-2.86136e-07
-1.17827e-06
-3.71193e-06
-8.17635e-06
-1.37647e-05
-2.08874e-05
-2.8421e-05
-3.59145e-05
-4.39439e-05
-5.13256e-05
-6.03958e-05
-6.97125e-05
-8.28626e-05
-9.82168e-05
-0.000119517
-0.000144409
-0.000176328
-0.000210925
-0.00025476
-0.000300944
-0.00035884
-0.000418749
-0.000493119
-0.000568758
-0.000661793
-0.000754869
-0.000868312
-0.000980029
-0.00111492
-0.00124575
-0.00140213
-0.00155155
-0.0017282
-0.00189447
-0.00208863
-0.0022686
-0.00247591
-0.00266492
-0.00287926
-0.00307122
-0.00328495
-0.00347241
-0.00367666
-0.00385115
-0.00403604
-0.00418858
-0.00434403
-0.00446559
-0.00458201
-0.00466434
-0.00473337
-0.00476983
-0.00478556
-0.00477202
-0.00473151
-0.00466712
-0.00457129
-0.00445874
-0.00431258
-0.00415823
-0.00397023
-0.00378344
-0.00356496
-0.0033571
-0.00312102
-0.00290415
-0.00267607
-0.00246955
-0.00232211
-0.00224736
-0.00225782
-0.00235318
-0.00251777
-0.00274148
-0.00299369
-0.00327562
-0.00351684
-0.00374726
-0.00388327
-0.00397517
-0.00396205
-0.00389696
-0.00373615
-0.00353177
-0.00324743
-0.00293117
-0.00257772
-0.00221433
-0.00187336
-0.00155761
-0.00140195
0.000111541
0.000108724
0.000104437
8.67028e-05
5.9695e-05
3.41562e-05
1.81805e-05
5.02671e-06
2.77638e-06
-2.00363e-07
-1.09051e-06
-3.55216e-06
-8.01466e-06
-1.3493e-05
-2.06123e-05
-2.82568e-05
-3.57492e-05
-4.41145e-05
-5.15e-05
-6.10559e-05
-7.03788e-05
-8.41597e-05
-9.95161e-05
-0.000121696
-0.000146582
-0.000179789
-0.000214378
-0.000260083
-0.000306257
-0.000366784
-0.000426679
-0.000504627
-0.000580249
-0.000677987
-0.000771042
-0.000890468
-0.00100216
-0.00114442
-0.00127522
-0.0014404
-0.00158979
-0.00177661
-0.00194284
-0.00214839
-0.00232832
-0.00254795
-0.00273692
-0.00296416
-0.00315608
-0.00338281
-0.00357023
-0.00378704
-0.0039615
-0.00415795
-0.00431045
-0.00447586
-0.00459739
-0.00472163
-0.00480395
-0.0048782
-0.00491465
-0.00493266
-0.00491912
-0.00487775
-0.00481337
-0.00471357
-0.00460105
-0.00444798
-0.00429366
-0.00409622
-0.00390948
-0.00367954
-0.00347173
-0.0032228
-0.00300598
-0.00276479
-0.00255831
-0.00240033
-0.00232527
-0.00233027
-0.00242485
-0.00258705
-0.00280964
-0.00305826
-0.0033389
-0.00357234
-0.00380151
-0.00392551
-0.00401635
-0.00398938
-0.00392346
-0.00374997
-0.003545
-0.00325155
-0.00293496
-0.00257704
-0.00221358
-0.00187175
-0.00155607
-0.00140063
0.000116616
0.000113868
0.000109609
9.09635e-05
6.40414e-05
3.63848e-05
2.0469e-05
5.64992e-06
3.41837e-06
-1.07743e-07
-9.95743e-07
-3.37963e-06
-7.84005e-06
-1.31996e-05
-2.03152e-05
-2.80795e-05
-3.55708e-05
-4.42987e-05
-5.16882e-05
-6.17687e-05
-7.10982e-05
-8.55604e-05
-0.000100919
-0.000124048
-0.000148928
-0.000183526
-0.000218107
-0.000265831
-0.000311995
-0.000375362
-0.000435244
-0.000517053
-0.000592657
-0.000695473
-0.000788506
-0.000914393
-0.00102606
-0.00117628
-0.00130705
-0.00148173
-0.00163108
-0.00182888
-0.00199507
-0.00221291
-0.0023928
-0.00262574
-0.00281467
-0.00305584
-0.00324772
-0.00348849
-0.00367586
-0.00390624
-0.00408065
-0.00428958
-0.00444205
-0.00461822
-0.00473972
-0.00487241
-0.0049547
-0.00503459
-0.00507104
-0.00509149
-0.00507796
-0.00503567
-0.00497131
-0.00486721
-0.00475472
-0.0045942
-0.00443992
-0.00423228
-0.00404558
-0.00380327
-0.00359551
-0.00333271
-0.00311594
-0.00286059
-0.00265415
-0.0024848
-0.0024094
-0.0024085
-0.00250224
-0.00266187
-0.00288324
-0.003128
-0.00340724
-0.00363227
-0.0038601
-0.00397112
-0.00406082
-0.0040189
-0.00395209
-0.00376489
-0.00355928
-0.00325599
-0.00293904
-0.0025763
-0.00221277
-0.00187002
-0.00155441
-0.0013992
0.000122097
0.000119422
0.000115195
9.55644e-05
6.87347e-05
3.87913e-05
2.29402e-05
6.32289e-06
4.11161e-06
-7.72732e-09
-8.93407e-07
-3.19333e-06
-7.6515e-06
-1.28828e-05
-1.99944e-05
-2.78881e-05
-3.53781e-05
-4.44976e-05
-5.18915e-05
-6.25384e-05
-7.18751e-05
-8.70729e-05
-0.000102434
-0.000126588
-0.000151462
-0.000187561
-0.000222134
-0.000272038
-0.00031819
-0.000384625
-0.000444491
-0.000530471
-0.000606057
-0.000714355
-0.000807364
-0.000940228
-0.00105187
-0.00121068
-0.00134142
-0.00152635
-0.00167567
-0.00188533
-0.00205147
-0.00228259
-0.00246243
-0.00270975
-0.00289863
-0.00315484
-0.00334666
-0.0036026
-0.00378992
-0.00403496
-0.00420933
-0.00443173
-0.00458416
-0.00477194
-0.00489341
-0.00503522
-0.0051175
-0.00520347
-0.00523991
-0.00526301
-0.00524948
-0.0052062
-0.00514185
-0.00503311
-0.00492065
-0.00475209
-0.00459785
-0.0043792
-0.00419255
-0.00393688
-0.00372917
-0.00345139
-0.00323468
-0.00296404
-0.00275765
-0.00257601
-0.00250025
-0.00249297
-0.00258582
-0.00274266
-0.00296272
-0.0032033
-0.00348103
-0.00369699
-0.00392336
-0.00402038
-0.00410884
-0.00405078
-0.003983
-0.003781
-0.00357471
-0.00326079
-0.00294346
-0.00257551
-0.0022119
-0.00186815
-0.00155261
-0.00139766
0.000128016
0.000125421
0.000121226
0.000100533
7.38028e-05
4.13899e-05
2.56087e-05
7.04958e-06
4.8602e-06
1.00274e-07
-7.82901e-07
-2.99215e-06
-7.4479e-06
-1.25407e-05
-1.9648e-05
-2.76813e-05
-3.517e-05
-4.47124e-05
-5.2111e-05
-6.33695e-05
-7.27141e-05
-8.87062e-05
-0.00010407
-0.000129332
-0.000154199
-0.000191918
-0.000226482
-0.000278741
-0.00032488
-0.000394628
-0.000454478
-0.000544961
-0.000620525
-0.000734745
-0.000827728
-0.000968126
-0.00107973
-0.00124783
-0.00137853
-0.00157454
-0.00172381
-0.00194628
-0.00211238
-0.00235783
-0.00253762
-0.00280046
-0.00298929
-0.00326174
-0.00345351
-0.00372582
-0.00391309
-0.00417395
-0.00434827
-0.00458522
-0.00473761
-0.00493794
-0.00505938
-0.00521104
-0.00529329
-0.00538583
-0.00542226
-0.00544823
-0.0054347
-0.00539034
-0.00532601
-0.00521227
-0.00509983
-0.00492259
-0.00476839
-0.00453785
-0.00435125
-0.00408116
-0.0038735
-0.00357955
-0.0033629
-0.00307575
-0.00286941
-0.0026745
-0.00259836
-0.00258419
-0.00267606
-0.0028299
-0.00304855
-0.00328461
-0.00356072
-0.00376687
-0.00399168
-0.00407357
-0.00416069
-0.0040852
-0.00401638
-0.0037984
-0.00359136
-0.00326598
-0.00294823
-0.00257465
-0.00221096
-0.00186613
-0.00155067
-0.001396
0.000137321
0.000134734
0.000131069
0.000109516
8.17717e-05
4.73825e-05
2.93689e-05
9.33867e-06
5.73856e-06
5.06558e-07
-7.06008e-07
-2.84599e-06
-7.18703e-06
-1.21825e-05
-1.92201e-05
-2.73549e-05
-3.49998e-05
-4.4883e-05
-5.25493e-05
-6.43733e-05
-7.40258e-05
-9.07814e-05
-0.000106727
-0.000132898
-0.000159174
-0.000198014
-0.000234152
-0.000288039
-0.000336425
-0.000408462
-0.00047138
-0.000564976
-0.000644601
-0.000762914
-0.000861106
-0.00100671
-0.0011248
-0.00129931
-0.00143782
-0.00164149
-0.00179988
-0.00203119
-0.00220762
-0.00246298
-0.0026541
-0.00292767
-0.00312851
-0.0034122
-0.00361625
-0.00389989
-0.00409926
-0.00437105
-0.00455675
-0.00480377
-0.00496626
-0.00517529
-0.00530505
-0.00546352
-0.00555185
-0.00564897
-0.0056889
-0.00571682
-0.00570397
-0.00565886
-0.00559228
-0.00547511
-0.00535762
-0.00517436
-0.00501258
-0.00477383
-0.0045775
-0.00429744
-0.00407843
-0.00377329
-0.00354525
-0.00324669
-0.00301707
-0.00281146
-0.00272849
-0.00270383
-0.00279973
-0.00294426
-0.00316756
-0.00339489
-0.0036694
-0.00386731
-0.00408096
-0.00415325
-0.00422451
-0.00413677
-0.00405456
-0.00382476
-0.00360797
-0.00327519
-0.0029514
-0.00257503
-0.0022122
-0.00186789
-0.00156197
-0.00140765
0.000150573
0.000148002
0.000141888
0.000120481
9.14685e-05
5.73356e-05
3.45303e-05
1.46505e-05
6.83717e-06
1.63405e-06
-7.06892e-07
-2.84869e-06
-6.83011e-06
-1.18201e-05
-1.86312e-05
-2.67572e-05
-3.50083e-05
-4.48951e-05
-5.39699e-05
-6.58131e-05
-7.75051e-05
-9.42818e-05
-0.000112775
-0.000138944
-0.000168461
-0.000207289
-0.000248201
-0.00030207
-0.000357262
-0.000429276
-0.000501487
-0.000595053
-0.000686976
-0.00080525
-0.000919215
-0.00106477
-0.00120247
-0.00137693
-0.00153906
-0.00174267
-0.00192867
-0.00215991
-0.00236759
-0.00262287
-0.00284826
-0.00312174
-0.00335892
-0.00364251
-0.00388376
-0.00416731
-0.00440329
-0.00467499
-0.00489512
-0.00514206
-0.00533517
-0.00554412
-0.00569911
-0.00585753
-0.00596431
-0.0060614
-0.00611188
-0.00613979
-0.00612894
-0.00608385
-0.00601048
-0.00589334
-0.00576058
-0.00557737
-0.00539261
-0.00515393
-0.00492815
-0.00464817
-0.00439479
-0.00408975
-0.00382724
-0.00352877
-0.00327448
-0.00306861
-0.00296677
-0.0029404
-0.003021
-0.0031626
-0.00336998
-0.00359358
-0.00384055
-0.00403467
-0.00421086
-0.00427993
-0.0043111
-0.00422093
-0.00410088
-0.00386946
-0.0036233
-0.00328967
-0.00295268
-0.00257602
-0.00221434
-0.00187002
-0.00158931
-0.00143502
0.000164954
0.000162399
0.000156183
0.000134917
0.00010172
6.78689e-05
4.01037e-05
2.03865e-05
8.0235e-06
2.85157e-06
-7.07846e-07
-2.8516e-06
-6.44469e-06
-1.14287e-05
-1.79953e-05
-2.61118e-05
-3.50176e-05
-4.49082e-05
-5.5504e-05
-6.73678e-05
-8.12622e-05
-9.80616e-05
-0.000119305
-0.000145473
-0.00017849
-0.000217304
-0.000263371
-0.000317222
-0.000379764
-0.000451753
-0.000533999
-0.000627532
-0.000732734
-0.000850967
-0.000981964
-0.00112747
-0.00128634
-0.00146074
-0.00164839
-0.00185193
-0.00206774
-0.0022989
-0.00254033
-0.00279552
-0.00305791
-0.0033313
-0.00360772
-0.00389121
-0.00417262
-0.00445608
-0.00473159
-0.00500319
-0.00526051
-0.00550736
-0.00573353
-0.00594241
-0.00612464
-0.00628301
-0.00640969
-0.00650675
-0.00656864
-0.00659654
-0.00658785
-0.00654277
-0.00646206
-0.00634497
-0.0061957
-0.00601256
-0.00580298
-0.00556439
-0.00530679
-0.00502691
-0.00473641
-0.00443147
-0.00413173
-0.00383337
-0.00355244
-0.00334629
-0.00322407
-0.00319587
-0.00325994
-0.00339839
-0.00358856
-0.00380814
-0.00402537
-0.0042154
-0.00435112
-0.00441673
-0.00440459
-0.00431182
-0.0041509
-0.00391773
-0.00363985
-0.00330531
-0.00295401
-0.00257703
-0.00221069
-0.00186632
-0.00161461
-0.00146033
0.000181629
0.000179094
0.000176375
0.000155382
0.000111535
7.79392e-05
4.13084e-05
2.1615e-05
7.64851e-06
2.45663e-06
-3.16388e-07
-2.45105e-06
-5.14962e-06
-1.01044e-05
-1.67805e-05
-2.48738e-05
-3.47578e-05
-4.46467e-05
-5.65974e-05
-6.84745e-05
-8.39263e-05
-0.000100738
-0.000124018
-0.000150182
-0.000186254
-0.000225053
-0.000276074
-0.000329904
-0.000399612
-0.000471574
-0.000563911
-0.00065741
-0.0007763
-0.000894489
-0.0010434
-0.00118885
-0.00137038
-0.00154471
-0.00176007
-0.00196353
-0.00221213
-0.0024432
-0.00272217
-0.00297726
-0.00328122
-0.0035545
-0.00387541
-0.0041588
-0.00448613
-0.00476948
-0.00509054
-0.00536204
-0.00566253
-0.00590929
-0.00617415
-0.00638296
-0.00659733
-0.00675563
-0.00690601
-0.00700303
-0.00707862
-0.00710651
-0.0071005
-0.00705544
-0.00696602
-0.00684897
-0.00667996
-0.00649689
-0.00625761
-0.00601912
-0.00572361
-0.00544384
-0.00510943
-0.0048046
-0.00445416
-0.00415591
-0.00382167
-0.00361526
-0.00346278
-0.00343293
-0.0034918
-0.00362725
-0.0038187
-0.00403405
-0.00424474
-0.00442988
-0.00453853
-0.00459949
-0.00454004
-0.00444348
-0.00423101
-0.00399512
-0.00367469
-0.00333864
-0.00295512
-0.00257781
-0.00219556
-0.00185142
-0.00157357
-0.00141939
0.000199739
0.000197274
0.00019891
0.000177578
0.00012246
8.93034e-05
4.25743e-05
2.28961e-05
7.09201e-06
1.87635e-06
1.36188e-07
-1.98813e-06
-3.69626e-06
-8.61836e-06
-1.54155e-05
-2.34833e-05
-3.44338e-05
-4.43207e-05
-5.76611e-05
-6.95525e-05
-8.64774e-05
-0.000103302
-0.00012867
-0.00015483
-0.000194472
-0.000233255
-0.000289593
-0.000343401
-0.000420806
-0.000492739
-0.000595933
-0.000689394
-0.00082303
-0.000941171
-0.0011094
-0.0012548
-0.00146077
-0.00163504
-0.00188032
-0.0020837
-0.00236773
-0.0025987
-0.00291827
-0.00317326
-0.00352219
-0.00379537
-0.00416443
-0.0044477
-0.00482475
-0.00510798
-0.00547838
-0.00574977
-0.00609705
-0.00634371
-0.00665052
-0.00685924
-0.00710846
-0.0072667
-0.00744278
-0.00753976
-0.00763022
-0.0076581
-0.007655
-0.00760996
-0.0075111
-0.00739409
-0.00720365
-0.00702066
-0.00674917
-0.00651077
-0.00617415
-0.00589449
-0.00551245
-0.00520775
-0.00480199
-0.00450386
-0.00410662
-0.00389993
-0.00371147
-0.00367985
-0.00373683
-0.00386903
-0.00406627
-0.00427706
-0.00448359
-0.00466343
-0.00474311
-0.00479901
-0.00468888
-0.0045882
-0.00431985
-0.00408101
-0.00371246
-0.00337476
-0.0029565
-0.00257835
-0.00218134
-0.00183654
-0.00153
-0.00137579
0.000225829
0.00022433
0.000226116
0.000201745
0.00014714
0.000104194
5.69173e-05
2.87765e-05
1.24628e-05
3.08545e-06
1.46905e-06
-1.45977e-06
-3.06075e-06
-7.527e-06
-1.42981e-05
-2.22244e-05
-3.32982e-05
-4.3917e-05
-5.74794e-05
-7.08284e-05
-8.80365e-05
-0.000106852
-0.000132613
-0.000161602
-0.000201681
-0.000245075
-0.000301803
-0.000362535
-0.000440507
-0.000522492
-0.000626489
-0.000733975
-0.000868702
-0.00100568
-0.00117534
-0.00134511
-0.00155291
-0.00175762
-0.00200513
-0.00224525
-0.00253193
-0.00280577
-0.00312836
-0.00343171
-0.003784
-0.00410994
-0.00448259
-0.00482148
-0.00520224
-0.00554199
-0.00591608
-0.00624268
-0.00659345
-0.00689158
-0.00720153
-0.00745552
-0.00770735
-0.00790233
-0.00808033
-0.00820342
-0.00829501
-0.00833678
-0.00833391
-0.00828953
-0.00818998
-0.00806014
-0.00786811
-0.00765936
-0.00738548
-0.00710972
-0.00677004
-0.00644346
-0.00605787
-0.00569922
-0.00528933
-0.00493449
-0.0045218
-0.00426984
-0.00407012
-0.00401028
-0.00406298
-0.00417363
-0.00436743
-0.00454861
-0.00474993
-0.0048852
-0.00495666
-0.0049577
-0.00483877
-0.0046838
-0.00440692
-0.00412376
-0.00374766
-0.00338031
-0.00295894
-0.00256733
-0.00217038
-0.00182525
-0.00151889
-0.0013667
0.000254003
0.000253546
0.000255493
0.000227842
0.000173791
0.000120274
7.34444e-05
3.5153e-05
1.90215e-05
4.58101e-06
3.00637e-06
-8.86712e-07
-2.4743e-06
-6.38649e-06
-1.31363e-05
-2.08944e-05
-3.19474e-05
-4.3471e-05
-5.7029e-05
-7.22335e-05
-8.94523e-05
-0.000110886
-0.000136652
-0.000169266
-0.000209326
-0.000258087
-0.000314788
-0.000383579
-0.000461514
-0.0005552
-0.000659147
-0.000782956
-0.00091762
-0.00107651
-0.0012461
-0.00144424
-0.00165194
-0.00189209
-0.00213949
-0.00242238
-0.00270891
-0.00303265
-0.00335508
-0.00371473
-0.00406685
-0.00445419
-0.00482667
-0.00523028
-0.00561085
-0.0060164
-0.0063903
-0.00678116
-0.00713176
-0.00748979
-0.0077996
-0.00810628
-0.00835799
-0.00859572
-0.00877364
-0.00892713
-0.00901867
-0.00907661
-0.00907373
-0.00903012
-0.00893061
-0.00878585
-0.00859392
-0.00835518
-0.00808143
-0.00776219
-0.00742267
-0.00704147
-0.00665607
-0.00623463
-0.00582493
-0.00540409
-0.00499158
-0.00468199
-0.00448068
-0.00438138
-0.00443024
-0.00451085
-0.00469924
-0.00484329
-0.00503856
-0.00512085
-0.00518671
-0.005123
-0.00499966
-0.00477999
-0.00450003
-0.00416356
-0.00378563
-0.00338363
-0.00296157
-0.00255542
-0.00215854
-0.00181307
-0.00150689
-0.00135688
0.000284426
0.000285095
0.000287216
0.000256022
0.00020257
0.000137637
9.1291e-05
4.20386e-05
2.61039e-05
6.19598e-06
4.66643e-06
-2.67902e-07
-1.84103e-06
-5.15492e-06
-1.18818e-05
-1.94582e-05
-3.04888e-05
-4.29893e-05
-5.65425e-05
-7.37508e-05
-9.09812e-05
-0.000115242
-0.000141013
-0.000177541
-0.000217581
-0.000272138
-0.00032881
-0.000406303
-0.000484198
-0.000590518
-0.000694412
-0.000835848
-0.000970444
-0.00115301
-0.00132251
-0.00155129
-0.00175887
-0.0020373
-0.00228457
-0.00261364
-0.00290002
-0.00327764
-0.00359991
-0.00402034
-0.00437228
-0.00482593
-0.00519822
-0.00567171
-0.0060521
-0.00652868
-0.00690239
-0.00736262
-0.00771305
-0.00813577
-0.00844541
-0.008809
-0.00906058
-0.00934447
-0.0095223
-0.00970861
-0.0098001
-0.0098755
-0.00987263
-0.00982984
-0.00973039
-0.0095695
-0.00937767
-0.00910656
-0.00883294
-0.00846675
-0.00812741
-0.00768724
-0.00730203
-0.00681278
-0.0064033
-0.00591119
-0.00549886
-0.00512703
-0.00492402
-0.00478211
-0.00482682
-0.00487501
-0.00505755
-0.00516149
-0.00535023
-0.00537531
-0.00543513
-0.0053015
-0.0051734
-0.00488386
-0.00460057
-0.00420654
-0.00382664
-0.00338722
-0.00296442
-0.00254255
-0.00214575
-0.00179991
-0.00149393
-0.00134628
0.000324032
0.000325057
0.000321753
0.000290315
0.000236469
0.000168193
0.000114108
6.07902e-05
3.51802e-05
1.31352e-05
6.46065e-06
1.12593e-06
-1.58323e-06
-4.64387e-06
-1.07303e-05
-1.82207e-05
-2.88843e-05
-4.17938e-05
-5.61323e-05
-7.42521e-05
-9.33082e-05
-0.00011893
-0.000147228
-0.000185552
-0.000229063
-0.000285862
-0.000347903
-0.000428765
-0.000514673
-0.000625886
-0.000741197
-0.000889462
-0.0010397
-0.00123143
-0.00142157
-0.00166222
-0.00189605
-0.0021893
-0.00246877
-0.00281574
-0.0031403
-0.0035388
-0.00390482
-0.00434881
-0.00474927
-0.00522863
-0.00565294
-0.00615354
-0.00658784
-0.00709198
-0.0075196
-0.00800673
-0.0084089
-0.00885671
-0.0092137
-0.00959937
-0.0098917
-0.0101935
-0.0104034
-0.0106025
-0.0107157
-0.0107979
-0.0108051
-0.0107627
-0.0106609
-0.0104938
-0.0102871
-0.0100035
-0.00970318
-0.0093188
-0.00894219
-0.00847916
-0.00804797
-0.00753243
-0.00707516
-0.00655543
-0.0061001
-0.00569946
-0.00545785
-0.00529105
-0.0052933
-0.00532028
-0.00545313
-0.0055341
-0.00566091
-0.00565813
-0.00565438
-0.00548925
-0.00530854
-0.00498818
-0.0046659
-0.00424669
-0.00384199
-0.00338726
-0.00295699
-0.00253027
-0.00213849
-0.00179352
-0.0015142
-0.0013675
0.000369553
0.000370628
0.000371176
0.000340304
0.000274816
0.00020754
0.000136798
8.41358e-05
4.36686e-05
2.18375e-05
7.72738e-06
2.41847e-06
-1.27281e-06
-4.32951e-06
-9.10585e-06
-1.65655e-05
-2.67295e-05
-3.96037e-05
-5.53928e-05
-7.35004e-05
-9.57808e-05
-0.000121407
-0.000153977
-0.000192285
-0.000241002
-0.000297767
-0.000368341
-0.000449154
-0.000548
-0.000659147
-0.000793161
-0.000941336
-0.00111749
-0.00130911
-0.00153375
-0.00177426
-0.00205229
-0.00234537
-0.00267942
-0.00302618
-0.00341579
-0.00381405
-0.00425496
-0.00469869
-0.00518249
-0.00566156
-0.00617555
-0.00667586
-0.00720337
-0.0077072
-0.00822822
-0.00871506
-0.00920709
-0.00965463
-0.010094
-0.0104794
-0.0108428
-0.0111444
-0.0114104
-0.0116093
-0.0117604
-0.0118425
-0.0118672
-0.0118248
-0.0117186
-0.0115516
-0.0113187
-0.0110352
-0.0106878
-0.0103037
-0.00986154
-0.00939879
-0.00888701
-0.00837179
-0.00782689
-0.00730747
-0.00677727
-0.00637603
-0.00606319
-0.00589218
-0.00581766
-0.00583777
-0.00588827
-0.00596113
-0.00599165
-0.00598134
-0.0058761
-0.00570523
-0.00543144
-0.00510729
-0.00471235
-0.00429099
-0.00384046
-0.0033849
-0.00293462
-0.00250788
-0.00211263
-0.00176788
-0.00151635
-0.00136972
0.000419014
0.00042045
0.000438303
0.000407767
0.000319687
0.000252714
0.000151327
9.94529e-05
4.51987e-05
2.33712e-05
6.87815e-06
1.53918e-06
-3.15393e-08
-3.06161e-06
-5.53508e-06
-1.2921e-05
-2.27697e-05
-3.55771e-05
-5.27608e-05
-7.08332e-05
-9.52425e-05
-0.000120852
-0.000156128
-0.000194414
-0.00024755
-0.000304287
-0.000382297
-0.000463073
-0.00057387
-0.00068497
-0.000837141
-0.000985259
-0.00118753
-0.00137908
-0.0016395
-0.00187993
-0.00220485
-0.00249784
-0.00289087
-0.00323754
-0.0036985
-0.00409665
-0.00462075
-0.00506436
-0.00564171
-0.00612066
-0.00673619
-0.00723637
-0.00787021
-0.00837393
-0.0090022
-0.00948894
-0.0100848
-0.0105322
-0.0110672
-0.0114526
-0.0118988
-0.0122004
-0.0125318
-0.0127308
-0.0129262
-0.0130083
-0.013053
-0.0130106
-0.0128986
-0.0127317
-0.0124668
-0.0121834
-0.0117794
-0.0113954
-0.0108751
-0.0104125
-0.0098056
-0.00929052
-0.00863041
-0.00811111
-0.00744198
-0.00704015
-0.00663188
-0.00645686
-0.00634177
-0.00635495
-0.00636502
-0.00642901
-0.00639343
-0.00637401
-0.00616814
-0.00598997
-0.00560229
-0.00527304
-0.00477999
-0.00435581
-0.00383719
-0.00338066
-0.00289394
-0.00246657
-0.00206584
-0.00172207
-0.00144099
-0.00129472
0.000487302
0.000493432
0.000511682
0.00047936
0.000392811
0.000305666
0.000205752
0.000128251
7.42952e-05
3.43768e-05
1.80696e-05
4.26354e-06
2.74903e-06
-1.77097e-06
-4.17198e-06
-1.02083e-05
-1.99797e-05
-3.18369e-05
-4.9036e-05
-6.77434e-05
-9.22458e-05
-0.000119739
-0.000155122
-0.000196263
-0.000249339
-0.000310971
-0.000388926
-0.000478159
-0.000588878
-0.000713722
-0.000865787
-0.00103476
-0.00123689
-0.0014583
-0.00171853
-0.0019996
-0.0023243
-0.00267013
-0.00306289
-0.00347545
-0.0039361
-0.00441328
-0.00493701
-0.00547198
-0.00604892
-0.00662983
-0.00724493
-0.00785502
-0.00848842
-0.00910656
-0.00973439
-0.010336
-0.0109314
-0.0114894
-0.0120241
-0.0125111
-0.0129569
-0.0133461
-0.0136773
-0.0139452
-0.0141405
-0.0142689
-0.0143136
-0.0142919
-0.0141799
-0.0140063
-0.0137416
-0.013424
-0.0130203
-0.0125762
-0.0120563
-0.0115107
-0.0109042
-0.010288
-0.00962838
-0.00899621
-0.00831941
-0.00780979
-0.0073905
-0.00711928
-0.00699458
-0.00691013
-0.00690968
-0.00686153
-0.00681476
-0.00667141
-0.00645593
-0.00615902
-0.00576513
-0.00534055
-0.00484328
-0.00435557
-0.00383455
-0.00334577
-0.00285915
-0.00242564
-0.00202553
-0.00169018
-0.00140943
-0.00126934
0.000561042
0.000572242
0.000590886