/*--------------------------------*- C++ -*----------------------------------*\
| =========                 |                                                 |
| \\      /  F ield         | OpenFOAM: The Open Source CFD Toolbox           |
|  \\    /   O peration     | Version:  v2106                                 |
|   \\  /    A nd           | Website:  www.openfoam.com                      |
|    \\/     M anipulation  |                                                 |
\*---------------------------------------------------------------------------*/
FoamFile
{
    version     2.0;
    format      ascii;
    arch        "LSB;label=32;scalar=64";
    class       volScalarField;
    location    "0";
    object      expGpCoeffs49;
}
// * * * * * * * * * * * * * * * * * * * * * * * * * * * * * * * * * * * * * //

dimensions      [0 0 0 0 0 0 0];

internalField   nonuniform List<scalar> 
8000
(
0.00122241
0.00116778
0.00107389
0.000946914
0.000809261
0.000666388
0.000531877
0.000403246
0.000292183
0.000196952
0.000122684
6.95727e-05
3.38382e-05
1.49288e-05
4.20101e-06
7.55155e-07
-2.74729e-06
-6.58662e-06
-1.31284e-05
-2.2385e-05
-3.35144e-05
-4.64427e-05
-6.04628e-05
-7.54609e-05
-9.15183e-05
-0.000108702
-0.000127012
-0.000146424
-0.000166537
-0.000187299
-0.000208121
-0.000228948
-0.000249203
-0.000268834
-0.000287399
-0.000304863
-0.000321009
-0.000335828
-0.000349369
-0.000361643
-0.000372944
-0.0003833
-0.000393166
-0.000402583
-0.000412067
-0.000421659
-0.000431832
-0.000442622
-0.000454372
-0.0004671
-0.000480947
-0.00049591
-0.000511862
-0.000528777
-0.000546217
-0.000564129
-0.000581755
-0.000599014
-0.000614873
-0.000629231
-0.000640902
-0.000649777
-0.000654706
-0.000655597
-0.000651576
-0.000642587
-0.000628261
-0.000608597
-0.000583883
-0.00055418
-0.00052045
-0.000482811
-0.00044276
-0.000400452
-0.000357252
-0.000313257
-0.000268589
-0.000223253
-0.000177886
-0.000132962
-9.26614e-05
-5.72993e-05
-3.12295e-05
-1.44415e-05
-3.63629e-06
1.6595e-06
1.31257e-05
3.19938e-05
6.92034e-05
0.000125289
0.000201546
0.000297445
0.000403858
0.000521854
0.000640767
0.000762755
0.000880094
0.000989491
0.00107186
0.00112069
0.0012268
0.00117219
0.00107535
0.000948395
0.000809257
0.000666343
0.00053103
0.000402313
0.000290623
0.000195304
0.000121047
6.78719e-05
3.28227e-05
1.38814e-05
4.00606e-06
5.54798e-07
-2.51528e-06
-6.35067e-06
-1.29217e-05
-2.21756e-05
-3.34216e-05
-4.63479e-05
-6.03877e-05
-7.53838e-05
-9.14188e-05
-0.0001086
-0.000126934
-0.000146343
-0.000166509
-0.000187268
-0.000208147
-0.000228971
-0.000249276
-0.000268905
-0.000287503
-0.000304964
-0.000321121
-0.000335937
-0.000349464
-0.000361737
-0.000373005
-0.000383359
-0.000393182
-0.000402598
-0.000412038
-0.000421628
-0.000431766
-0.000442554
-0.000454283
-0.00046701
-0.000480857
-0.000495818
-0.000511796
-0.000528709
-0.000546205
-0.000564114
-0.000581823
-0.000599079
-0.000615041
-0.000629398
-0.000641177
-0.000650051
-0.000655075
-0.000655966
-0.000652004
-0.000643016
-0.000628693
-0.000609032
-0.000584258
-0.000554559
-0.000520711
-0.000483077
-0.00044287
-0.000400568
-0.000357273
-0.000313283
-0.00026867
-0.00022334
-0.000177756
-0.000132837
-9.1992e-05
-5.66387e-05
-3.0369e-05
-1.3595e-05
-3.55066e-06
1.74443e-06
1.19477e-05
3.08508e-05
6.73889e-05
0.000123542
0.000200202
0.00029618
0.000403538
0.000521594
0.000640926
0.000762942
0.000881083
0.000990465
0.0010758
0.00112462
0.00123155
0.00117695
0.00107692
0.000949994
0.000809251
0.000666294
0.000530114
0.000401306
0.000288938
0.000193525
0.000119279
6.60353e-05
3.1726e-05
1.27503e-05
3.79555e-06
3.38445e-07
-2.26474e-06
-6.09589e-06
-1.26986e-05
-2.19495e-05
-3.33213e-05
-4.62455e-05
-6.03066e-05
-7.53005e-05
-9.13115e-05
-0.000108491
-0.00012685
-0.000146257
-0.000166478
-0.000187234
-0.000208175
-0.000228996
-0.000249355
-0.000268981
-0.000287615
-0.000305074
-0.000321241
-0.000336056
-0.000349567
-0.000361839
-0.00037307
-0.000383424
-0.0003932
-0.000402614
-0.000412007
-0.000421596
-0.000431694
-0.000442481
-0.000454187
-0.000466912
-0.00048076
-0.000495719
-0.000511725
-0.000528636
-0.000546191
-0.000564098
-0.000581896
-0.00059915
-0.000615223
-0.000629578
-0.000641475
-0.000650347
-0.000655473
-0.000656365
-0.000652465
-0.000643479
-0.00062916
-0.000609501
-0.000584663
-0.000554967
-0.000520993
-0.000483364
-0.000442989
-0.000400693
-0.000357295
-0.000313311
-0.000268758
-0.000223434
-0.000177616
-0.000132703
-9.12692e-05
-5.59254e-05
-2.94398e-05
-1.26809e-05
-3.4582e-06
1.83613e-06
1.06755e-05
2.96166e-05
6.54296e-05
0.000121656
0.000198752
0.000294814
0.000403192
0.000521314
0.000641097
0.000763145
0.000882152
0.000991517
0.00108006
0.00112886
0.00123668
0.0011821
0.00107862
0.00095172
0.000809246
0.000666242
0.000529125
0.000400218
0.000287119
0.000191605
0.00011737
6.40521e-05
3.05418e-05
1.1529e-05
3.56823e-06
1.04817e-07
-1.9942e-06
-5.82076e-06
-1.24576e-05
-2.17053e-05
-3.3213e-05
-4.6135e-05
-6.02191e-05
-7.52106e-05
-9.11955e-05
-0.000108372
-0.000126759
-0.000146163
-0.000166445
-0.000187198
-0.000208205
-0.000229023
-0.000249441
-0.000269064
-0.000287736
-0.000305193
-0.000321371
-0.000336184
-0.000349678
-0.000361948
-0.000373141
-0.000383493
-0.000393219
-0.000402632
-0.000411973
-0.00042156
-0.000431617
-0.000442402
-0.000454084
-0.000466807
-0.000480655
-0.000495612
-0.000511649
-0.000528557
-0.000546176
-0.000564081
-0.000581975
-0.000599226
-0.000615419
-0.000629772
-0.000641796
-0.000650667
-0.000655904
-0.000656795
-0.000652963
-0.000643978
-0.000629664
-0.000610008
-0.0005851
-0.000555409
-0.000521298
-0.000483674
-0.000443118
-0.000400828
-0.000357318
-0.000313341
-0.000268853
-0.000223536
-0.000177465
-0.000132558
-9.04887e-05
-5.51552e-05
-2.84365e-05
-1.16938e-05
-3.35835e-06
1.93516e-06
9.30183e-06
2.82839e-05
6.33139e-05
0.00011962
0.000197185
0.000293338
0.000402819
0.000521011
0.000641282
0.000763363
0.000883306
0.000992652
0.00108465
0.00113345
0.00124222
0.00118765
0.00108046
0.000953785
0.00080924
0.000666185
0.000528058
0.000399044
0.000285155
0.00018953
0.000115309
6.19105e-05
2.9263e-05
1.02101e-05
3.32276e-06
-1.47464e-07
-1.70206e-06
-5.52367e-06
-1.21974e-05
-2.14416e-05
-3.3096e-05
-4.60156e-05
-6.01245e-05
-7.51135e-05
-9.10703e-05
-0.000108244
-0.000126661
-0.000146061
-0.000166409
-0.000187159
-0.000208237
-0.000229052
-0.000249533
-0.000269153
-0.000287867
-0.000305321
-0.000321512
-0.000336322
-0.000349798
-0.000362066
-0.000373218
-0.000383568
-0.000393239
-0.000402651
-0.000411936
-0.000421522
-0.000431534
-0.000442317
-0.000453973
-0.000466694
-0.000480542
-0.000495496
-0.000511567
-0.000528472
-0.00054616
-0.000564062
-0.00058206
-0.000599309
-0.000615631
-0.000629982
-0.000642143
-0.000651013
-0.000656369
-0.00065726
-0.000653501
-0.000644518
-0.000630207
-0.000610555
-0.000585572
-0.000555885
-0.000521626
-0.000484009
-0.000443257
-0.000400974
-0.000357344
-0.000313374
-0.000268955
-0.000223645
-0.000177302
-0.000132401
-8.96458e-05
-5.43234e-05
-2.7353e-05
-1.0628e-05
-3.25053e-06
2.0421e-06
7.81844e-06
2.68447e-05
6.10292e-05
0.00011742
0.000195493
0.000291745
0.000402417
0.000520684
0.000641481
0.000763599
0.00088465
0.000993878
0.00108962
0.0011384
0.00124805
0.00119318
0.00108468
0.00095725
0.000810533
0.000668565
0.000527432
0.000399128
0.000283128
0.000187608
0.000113292
5.99905e-05
2.80773e-05
9.05258e-06
3.07678e-06
-4.09585e-07
-1.3866e-06
-5.20285e-06
-1.19165e-05
-2.11569e-05
-3.29697e-05
-4.58867e-05
-6.00224e-05
-7.50087e-05
-9.08212e-05
-0.000107948
-0.000126394
-0.000145737
-0.000166148
-0.00018683
-0.000207977
-0.000228715
-0.000249256
-0.000268794
-0.000287548
-0.000304917
-0.00032112
-0.000335848
-0.000349307
-0.000361499
-0.000372611
-0.000382891
-0.00039251
-0.00040186
-0.000411092
-0.000420619
-0.000430587
-0.000441314
-0.000452943
-0.000465611
-0.000479459
-0.000494355
-0.000510459
-0.00052731
-0.000545064
-0.00056292
-0.000581018
-0.00059823
-0.000614677
-0.000629014
-0.000641307
-0.000650182
-0.000655655
-0.000656582
-0.000652894
-0.00064398
-0.000629673
-0.000610112
-0.000585057
-0.000555486
-0.000521085
-0.000483595
-0.000442655
-0.000400505
-0.00035676
-0.000312921
-0.000269066
-0.000223763
-0.000177126
-0.000132232
-8.87357e-05
-5.34253e-05
-2.61831e-05
-9.47702e-06
-3.13065e-06
2.16985e-06
6.50972e-06
2.55073e-05
5.8984e-05
0.000115262
0.000193964
0.000290106
0.000402977
0.000520643
0.000643199
0.000764528
0.000886707
0.000996712
0.0010942
0.00114329
0.00125403
0.00119819
0.00108974
0.000960991
0.000814327
0.000672196
0.0005311
0.000402962
0.000287014
0.000190963
0.000116707
6.2101e-05
3.02301e-05
9.85878e-06
3.9007e-06
-2.5328e-07
-1.21966e-06
-4.96137e-06
-1.16773e-05
-2.06159e-05
-3.2438e-05
-4.50998e-05
-5.91632e-05
-7.38207e-05
-8.94987e-05
-0.000106172
-0.000124614
-0.000143397
-0.000163804
-0.000183819
-0.000204962
-0.00022494
-0.000245477
-0.000264191
-0.000282942
-0.000299467
-0.000315667
-0.000329575
-0.000343032
-0.00035446
-0.00036557
-0.000375157
-0.000384775
-0.000393498
-0.000402729
-0.000411675
-0.000421641
-0.00043181
-0.000443436
-0.000455549
-0.000469395
-0.000483738
-0.000499839
-0.000516161
-0.000533912
-0.000551304
-0.000569398
-0.000586272
-0.000602715
-0.000616903
-0.000629194
-0.000638166
-0.000643638
-0.000644947
-0.000641259
-0.000633015
-0.000618711
-0.000600083
-0.000575032
-0.000546598
-0.000512203
-0.000475979
-0.000435046
-0.000394208
-0.000350472
-0.000307917
-0.000264629
-0.000220451
-0.000174103
-0.000130139
-8.65974e-05
-5.23918e-05
-2.51321e-05
-9.15557e-06
-2.85341e-06
3.00772e-06
7.32888e-06
2.78338e-05
6.12643e-05
0.000118742
0.000197384
0.000293507
0.00040634
0.000523159
0.000645705
0.000766774
0.000888928
0.00100011
0.00109756
0.0011476
0.00126048
0.0012036
0.0010952
0.000965032
0.000818425
0.000676117
0.000535059
0.000407102
0.000291211
0.000194586
0.000120394
6.43801e-05
3.25549e-05
1.07293e-05
4.79041e-06
-8.44949e-08
-1.04747e-06
-4.71397e-06
-1.14265e-05
-1.99756e-05
-3.17898e-05
-4.4074e-05
-5.81304e-05
-7.23958e-05
-8.80705e-05
-0.000104255
-0.000122693
-0.000140871
-0.000161274
-0.000180568
-0.000201707
-0.000220863
-0.000241397
-0.000259221
-0.000277968
-0.000293582
-0.000309778
-0.0003228
-0.000336255
-0.000346859
-0.000357967
-0.000366807
-0.000376422
-0.000384469
-0.000393698
-0.000402017
-0.000411981
-0.000421546
-0.00043317
-0.000444684
-0.000458527
-0.000472274
-0.000488371
-0.000504122
-0.00052187
-0.000538761
-0.000556852
-0.000573359
-0.000589799
-0.000603825
-0.000616113
-0.000625191
-0.000630662
-0.000632382
-0.000628695
-0.000621175
-0.000606874
-0.000589252
-0.000564207
-0.000537
-0.000502612
-0.000467754
-0.000426829
-0.000387409
-0.000343681
-0.000302514
-0.000259235
-0.000216392
-0.00017007
-0.00012752
-8.40103e-05
-5.12684e-05
-2.40245e-05
-8.8516e-06
-2.55403e-06
3.91249e-06
8.21345e-06
3.0346e-05
6.37267e-05
0.000122499
0.000201077
0.000297181
0.000409971
0.000525877
0.000648411
0.000769199
0.000891327
0.00100378
0.0011012
0.00115225
0.00126745
0.00120945
0.00110109
0.000969395
0.00082285
0.00068035
0.000539335
0.000411573
0.000295743
0.000198498
0.000124377
6.68411e-05
3.50652e-05
1.16694e-05
5.75114e-06
9.77659e-08
-8.61547e-07
-4.44683e-06
-1.11556e-05
-1.92841e-05
-3.10898e-05
-4.29663e-05
-5.70152e-05
-7.08571e-05
-8.65283e-05
-0.000102184
-0.000120618
-0.000138143
-0.000158541
-0.000177058
-0.000198192
-0.000216461
-0.00023699
-0.000253854
-0.000272597
-0.000287227
-0.00030342
-0.000315486
-0.000328937
-0.000338651
-0.000349756
-0.000357789
-0.000367402
-0.000374719
-0.000383946
-0.000391588
-0.00040155
-0.000410463
-0.000422085
-0.000432951
-0.000446791
-0.000459894
-0.000475988
-0.000491122
-0.000508866
-0.000525217
-0.000543303
-0.000559415
-0.000575851
-0.000589702
-0.000601989
-0.00061118
-0.000616649
-0.000618814
-0.000615128
-0.00060839
-0.000594092
-0.000577557
-0.000552517
-0.000526635
-0.000492255
-0.000458872
-0.000417957
-0.000380067
-0.000336349
-0.00029668
-0.000253411
-0.00021201
-0.000165715
-0.000124693
-8.12166e-05
-5.00554e-05
-2.28284e-05
-8.52336e-06
-2.23075e-06
4.88949e-06
9.16864e-06
3.30588e-05
6.63857e-05
0.000126556
0.000205064
0.000301147
0.000413892
0.000528812
0.000651334
0.000771818
0.000893917
0.00100774
0.00110512
0.00115727
0.00127497
0.00121576
0.00110746
0.000974106
0.000827628
0.000684922
0.000543953
0.0004164
0.000300637
0.000202723
0.000128677
6.94986e-05
3.77759e-05
1.26845e-05
6.78859e-06
2.94579e-07
-6.60775e-07
-4.15836e-06
-1.08631e-05
-1.85374e-05
-3.03339e-05
-4.17702e-05
-5.5811e-05
-6.91956e-05
-8.4863e-05
-9.99475e-05
-0.000118377
-0.000135197
-0.00015559
-0.000173267
-0.000194397
-0.000211708
-0.000232232
-0.000248059
-0.000266797
-0.000280365
-0.000296554
-0.000307587
-0.000321035
-0.000329787
-0.00034089
-0.000348052
-0.000357663
-0.000364191
-0.000373415
-0.000380326
-0.000390286
-0.000398495
-0.000410114
-0.000420281
-0.000434118
-0.000446526
-0.000462616
-0.000477084
-0.000494823
-0.000510591
-0.000528673
-0.000544358
-0.00056079
-0.000574453
-0.000586736
-0.00059605
-0.000601518
-0.000604163
-0.000600477
-0.000594584
-0.000580289
-0.000564928
-0.000539894
-0.000515443
-0.000481071
-0.000449282
-0.000408376
-0.000372139
-0.000328431
-0.00029038
-0.000247121
-0.000207277
-0.000161013
-0.000121639
-7.81999e-05
-4.87455e-05
-2.15369e-05
-8.16891e-06
-1.88165e-06
5.9445e-06
1.02001e-05
3.59882e-05
6.9257e-05
0.000130938
0.000209371
0.000305431
0.000418126
0.000531981
0.000654489
0.000774646
0.000896714
0.00101202
0.00110936
0.00116269
0.00128309
0.00122258
0.00111434
0.000979193
0.000832787
0.000689859
0.000548939
0.000421613
0.000305922
0.000207285
0.00013332
7.23683e-05
4.07031e-05
1.37807e-05
7.90886e-06
5.07105e-07
-4.43973e-07
-3.84685e-06
-1.05473e-05
-1.7731e-05
-2.95177e-05
-4.04786e-05
-5.45106e-05
-6.74014e-05
-8.30647e-05
-9.75327e-05
-0.000115958
-0.000132015
-0.000152404
-0.000169174
-0.000190298
-0.000206575
-0.000227094
-0.000241801
-0.000260534
-0.000272955
-0.000289139
-0.000299057
-0.000312502
-0.000320216
-0.000331316
-0.000337537
-0.000347145
-0.000352822
-0.000362044
-0.000368166
-0.000378122
-0.000385571
-0.000397187
-0.0004066
-0.000420433
-0.00043209
-0.000448176
-0.000461925
-0.00047966
-0.000494797
-0.000512875
-0.000528099
-0.000544527
-0.000557986
-0.000570266
-0.000579712
-0.000585179
-0.000588342
-0.000584657
-0.000579676
-0.000565385
-0.000551291
-0.000526263
-0.000503358
-0.000468994
-0.000438926
-0.00039803
-0.000363578
-0.000319881
-0.000283576
-0.000240329
-0.000202167
-0.000155934
-0.000118342
-7.49424e-05
-4.7331e-05
-2.01422e-05
-7.78617e-06
-1.50469e-06
7.08375e-06
1.13139e-05
3.91515e-05
7.23575e-05
0.000135669
0.000214021
0.000310056
0.000422699
0.000535403
0.000657897
0.0007777
0.000899734
0.00101664
0.00111393
0.00116855
0.00129187
0.00122994
0.00112176
0.000984687
0.000838358
0.00069519
0.000554323
0.000427242
0.000311628
0.000212211
0.000138334
7.54671e-05
4.3864e-05
1.49644e-05
9.11858e-06
7.366e-07
-2.09861e-07
-3.51048e-06
-1.02062e-05
-1.68603e-05
-2.86363e-05
-3.90838e-05
-5.31064e-05
-6.54639e-05
-8.11228e-05
-9.49251e-05
-0.000113345
-0.00012858
-0.000148963
-0.000164754
-0.000185872
-0.000201032
-0.000221545
-0.000235043
-0.000253772
-0.000264953
-0.000281133
-0.000289846
-0.000303287
-0.000309881
-0.000320978
-0.000326182
-0.000335788
-0.000340545
-0.000349765
-0.000355034
-0.000364988
-0.000371616
-0.000383229
-0.000391827
-0.000405656
-0.000416502
-0.000432584
-0.000445556
-0.000463286
-0.000477742
-0.000495815
-0.000510541
-0.000526965
-0.000540204
-0.00055248
-0.00056207
-0.000567535
-0.000571257
-0.000567574
-0.000563577
-0.00054929
-0.000536565
-0.000511544
-0.000490308
-0.000455954
-0.000427743
-0.000386859
-0.000354333
-0.000310648
-0.00027623
-0.000232995
-0.000196648
-0.000150451
-0.000114782
-7.14247e-05
-4.58037e-05
-1.86362e-05
-7.37286e-06
-1.09762e-06
8.31395e-06
1.25166e-05
4.25673e-05
7.57056e-05
0.000140778
0.000219042
0.000315051
0.000427636
0.000539098
0.000661576
0.000780998
0.000902996
0.00102163
0.00111887
0.00117488
0.00130019
0.00123752
0.00113207
0.000994129
0.000848444
0.00070404
0.000563868
0.000436279
0.000320777
0.000220696
0.000146252
8.18721e-05
4.86049e-05
1.82009e-05
1.06362e-05
1.53808e-06
6.56172e-10
-3.22803e-06
-9.75274e-06
-1.59455e-05
-2.74603e-05
-3.74209e-05
-5.1147e-05
-6.30648e-05
-7.81049e-05
-9.14441e-05
-0.000109266
-0.000123929
-0.000143569
-0.000158679
-0.000178936
-0.000193321
-0.00021289
-0.000225548
-0.000243299
-0.00025362
-0.000268846
-0.000276723
-0.000289275
-0.000295091
-0.000305387
-0.000309888
-0.00031878
-0.000322898
-0.000331468
-0.000336147
-0.000345482
-0.00035154
-0.000362537
-0.000370567
-0.000383765
-0.000394051
-0.000409493
-0.000421925
-0.000439044
-0.000453026
-0.000470572
-0.000484951
-0.00050101
-0.000514092
-0.000526247
-0.000535937
-0.000541592
-0.000545702
-0.000542569
-0.000539252
-0.000525875
-0.000514101
-0.000490308
-0.00047023
-0.000437342
-0.000410422
-0.000371137
-0.000339951
-0.000297827
-0.00026472
-0.000223665
-0.000188812
-0.000143772
-0.000109957
-6.75894e-05
-4.3735e-05
-1.74337e-05
-7.00695e-06
-3.04734e-07
9.70888e-06
1.59688e-05
4.77017e-05
8.25017e-05
0.000148985
0.000227171
0.000323243
0.000434735
0.000545856
0.000667165
0.000787076
0.00090888
0.00102813
0.00112308
0.00117981
0.00130792
0.00124527
0.00114333
0.00100555
0.000861115
0.000716976
0.000578851
0.000451623
0.000337062
0.000237386
0.000159754
9.56963e-05
5.61586e-05
2.59266e-05
1.27733e-05
3.71955e-06
7.86225e-08
-3.14967e-06
-8.86187e-06
-1.50427e-05
-2.50507e-05
-3.49914e-05
-4.745e-05
-5.93593e-05
-7.30611e-05
-8.63961e-05
-0.000102424
-0.000117082
-0.000134491
-0.000149597
-0.000167268
-0.000181648
-0.00019838
-0.000211034
-0.000225849
-0.000236167
-0.00024852
-0.000256395
-0.000266273
-0.000272088
-0.000279976
-0.000284475
-0.000291219
-0.000295336
-0.000301951
-0.000306629
-0.000314104
-0.00032016
-0.000329304
-0.000337331
-0.000348634
-0.000358916
-0.000372442
-0.00038487
-0.000400153
-0.00041413
-0.000430095
-0.00044447
-0.000459434
-0.000472512
-0.000484303
-0.00049399
-0.000500226
-0.000504335
-0.000502855
-0.000499539
-0.000488896
-0.000477125
-0.000457022
-0.000436951
-0.000408468
-0.000381557
-0.000347073
-0.000315898
-0.000278457
-0.00024536
-0.000208469
-0.000173647
-0.000133502
-9.97687e-05
-6.33246e-05
-3.95265e-05
-1.73247e-05
-6.89651e-06
1.39121e-06
1.13721e-05
2.43429e-05
5.58885e-05
9.70235e-05
0.000163167
0.000242385
0.000338092
0.000445739
0.000556621
0.000674966
0.000794739
0.000916061
0.00103521
0.00112634
0.00118304
0.00131799
0.00125537
0.00115758
0.00101995
0.000874478
0.000730631
0.000595029
0.000468191
0.000354647
0.000255409
0.000174333
0.000110624
6.43154e-05
3.42691e-05
1.50811e-05
6.0752e-06
1.62814e-07
-3.06506e-06
-7.89987e-06
-1.40679e-05
-2.24487e-05
-3.2368e-05
-4.34578e-05
-5.5358e-05
-6.76147e-05
-8.0945e-05
-9.50358e-05
-0.000109689
-0.000124689
-0.000139789
-0.000154669
-0.000169044
-0.000182713
-0.000195362
-0.000207006
-0.000217321
-0.000226572
-0.000234445
-0.000241435
-0.000247247
-0.000252535
-0.000257033
-0.000261459
-0.000265574
-0.000270078
-0.000274754
-0.000280222
-0.000286275
-0.000293417
-0.000301441
-0.000310697
-0.000320976
-0.000332433
-0.000344857
-0.000358156
-0.000372128
-0.000386386
-0.000400756
-0.000414538
-0.000427612
-0.000439011
-0.000448695
-0.000455558
-0.000459665
-0.00045997
-0.000456655
-0.000448964
-0.000437198
-0.000421079
-0.000401015
-0.000377288
-0.000350386
-0.000321088
-0.000289923
-0.00025754
-0.000224455
-0.000192061
-0.000157271
-0.000122411
-8.87665e-05
-5.87193e-05
-3.4982e-05
-1.7207e-05
-6.77724e-06
3.22255e-06
1.31681e-05
3.33856e-05
6.4729e-05
0.000112705
0.000178481
0.000258814
0.000354127
0.00045762
0.000568246
0.000683131
0.00080275
0.000924795
0.00104384
0.00113141
0.0011881
0.00135659
0.00129404
0.00117674
0.00103938
0.000887073
0.000743473
0.000608007
0.000481449
0.000366907
0.000267924
0.000182055
0.000118493
6.67366e-05
3.67251e-05
1.4901e-05
5.88117e-06
4.82569e-07
-2.73991e-06
-5.90613e-06
-1.20451e-05
-1.91024e-05
-2.89939e-05
-3.88878e-05
-5.07776e-05
-6.13666e-05
-7.46919e-05
-8.68144e-05
-0.000101462
-0.000114127
-0.000129222
-0.000141343
-0.000155712
-0.000166261
-0.000178906
-0.000187206
-0.000197516
-0.00020338
-0.00021125
-0.000214982
-0.000220792
-0.000223071
-0.000227567
-0.000229266
-0.00023338
-0.000235397
-0.000240071
-0.000243205
-0.000249256
-0.00025413
-0.000262151
-0.000269171
-0.000279446
-0.000288741
-0.00030116
-0.00031251
-0.000326476
-0.000339213
-0.000353578
-0.000366521
-0.000379589
-0.000391068
-0.000400749
-0.000408771
-0.000412877
-0.000415461
-0.000412148
-0.000407762
-0.000396
-0.000384005
-0.000363948
-0.000344888
-0.000317996
-0.000293617
-0.000262464
-0.000235178
-0.000202106
-0.000174787
-0.000140032
-0.000109491
-7.59501e-05
-5.06636e-05
-2.704e-05
-1.46805e-05
-4.29961e-06
2.94667e-06
1.29081e-05
3.59419e-05
6.72491e-05
0.000121698
0.000187299
0.000271939
0.000366972
0.000469064
0.000579453
0.00069038
0.000809891
0.000936068
0.00105495
0.00116202
0.00121865
0.00139796
0.00133528
0.00119692
0.00105728
0.000900637
0.000756847
0.000621989
0.000495723
0.00037953
0.000280813
0.000189782
0.000126368
6.89523e-05
3.89699e-05
1.4438e-05
5.40045e-06
8.6475e-07
-2.3518e-06
-3.55487e-06
-9.66241e-06
-1.53635e-05
-2.52249e-05
-3.39045e-05
-4.57831e-05
-5.46e-05
-6.79199e-05
-7.79236e-05
-9.25655e-05
-0.000102724
-0.000117812
-0.000126968
-0.000141331
-0.000148521
-0.000161161
-0.000165854
-0.00017616
-0.000178364
-0.00018623
-0.000186437
-0.000192245
-0.000191262
-0.000195757
-0.000194499
-0.000198611
-0.000197933
-0.000202605
-0.000203209
-0.000209259
-0.000211678
-0.000219696
-0.000224298
-0.000234569
-0.000241533
-0.000253948
-0.000263203
-0.000277164
-0.000288275
-0.000302634
-0.000314694
-0.000327758
-0.00033935
-0.000349027
-0.000358327
-0.000362431
-0.000367495
-0.000364183
-0.000363372
-0.000351616
-0.000344064
-0.000324015
-0.000309969
-0.000283088
-0.000263985
-0.000232845
-0.000211043
-0.000177984
-0.000156217
-0.0001215
-9.53209e-05
-6.18917e-05
-4.1334e-05
-1.78336e-05
-1.15715e-05
-1.24467e-06
2.4255e-06
1.24063e-05
3.82577e-05
6.95352e-05
0.000130812
0.000196233
0.000285698
0.000380433
0.000481408
0.000591546
0.000697852
0.000817556
0.0009461
0.00106701
0.00119461
0.00125137
0.00142239
0.00135492
0.00121672
0.00107021
0.000913802
0.000768652
0.000634214
0.000509189
0.000393242
0.000294423
0.00020311
0.000136682
7.8885e-05
4.43776e-05
1.9515e-05
7.0463e-06
2.59747e-06
-1.55845e-06
-2.42984e-06
-7.67901e-06
-1.31214e-05
-2.16004e-05
-3.00766e-05
-4.04262e-05
-4.91052e-05
-6.05135e-05
-7.03484e-05
-8.27828e-05
-9.2742e-05
-0.00010537
-0.000114292
-0.000126054
-0.00013298
-0.000143033
-0.000147444
-0.000155339
-0.000157257
-0.000163008
-0.000162941
-0.000166971
-0.000165735
-0.000168745
-0.000167258
-0.000170059
-0.000169171
-0.000172557
-0.000172964
-0.000177609
-0.000179838
-0.000186229
-0.000190641
-0.000199031
-0.000205811
-0.000216134
-0.000225223
-0.000237029
-0.00024801
-0.000260389
-0.000272377
-0.000283937
-0.000295533
-0.000304504
-0.0003139
-0.000318358
-0.000323613
-0.000321861
-0.000321329
-0.000312334
-0.00030513
-0.000288875
-0.000275224
-0.000252877
-0.000234192
-0.000207968
-0.000186601
-0.000158555
-0.000137133
-0.000107094
-8.16454e-05
-5.30091e-05
-3.33616e-05
-1.37992e-05
-8.56532e-06
1.18504e-06
4.39699e-06
1.78889e-05
4.40912e-05
8.00223e-05
0.00014177
0.000208998
0.000298712
0.000391178
0.000491543
0.000598249
0.000704021
0.000824045
0.000952497
0.00108028
0.00120776
0.00126943
0.00144877
0.00137612
0.00123809
0.00108418
0.000928018
0.0007814
0.000647184
0.00052372
0.00040806
0.000309088
0.000218081
0.000147979
9.04166e-05
5.04378e-05
2.56997e-05
9.08552e-06
4.67764e-06
-6.28798e-07
-1.48525e-06
-5.68147e-06
-1.11023e-05
-1.78017e-05
-2.62588e-05
-3.4649e-05
-4.33235e-05
-5.25079e-05
-6.23382e-05
-7.22042e-05
-8.21587e-05
-9.19243e-05
-0.000100842
-0.000109578
-0.000116501
-0.000123545
-0.000127953
-0.000133043
-0.000134961
-0.00013825
-0.000138183
-0.000140146
-0.00013891
-0.000140191
-0.000138705
-0.00013998
-0.000139093
-0.000140982
-0.000141389
-0.000144399
-0.000146627
-0.000151127
-0.000155537
-0.000161737
-0.000168514
-0.000176405
-0.00018549
-0.00019479
-0.000205766
-0.000215841
-0.000227824
-0.000237636
-0.000249227
-0.000257376
-0.000266767
-0.000271636
-0.000276889
-0.000276955
-0.000276423
-0.00027064
-0.00026344
-0.000251597
-0.000237953
-0.00022088
-0.000202204
-0.0001817
-0.000160344
-0.00013813
-0.000116719
-9.26778e-05
-6.72982e-05
-4.48276e-05
-2.52669e-05
-1.05716e-05
-5.38769e-06
3.67096e-06
6.83264e-06
2.45678e-05
5.0635e-05
9.22014e-05
0.000153703
0.000223144
0.000312573
0.000402299
0.00050247
0.000604978
0.000710683
0.000831052
0.000959404
0.0010946
0.00122195
0.00128894
0.00147725
0.00139902
0.00126118
0.00109927
0.00094337
0.000795165
0.00066119
0.00053941
0.000424061
0.000324924
0.000234247
0.000160178
0.000102869
5.69818e-05
3.23782e-05
1.12876e-05
6.92389e-06
3.75076e-07
-4.65245e-07
-3.52445e-06
-8.92203e-06
-1.36997e-05
-2.21361e-05
-2.84104e-05
-3.70802e-05
-4.38631e-05
-5.36884e-05
-6.07811e-05
-7.07305e-05
-7.74052e-05
-8.63181e-05
-9.1787e-05
-9.87062e-05
-0.0001025
-0.000106907
-0.000108967
-0.000110883
-0.000111516
-0.000111448
-0.000111178
-0.000109943
-0.000109357
-0.000107872
-0.0001075
-0.000106613
-0.000106886
-0.000107293
-0.000108538
-0.000110765
-0.000113222
-0.00011763
-0.000121466
-0.000128239
-0.000133504
-0.000142584
-0.000149179
-0.000160149
-0.000167737
-0.000179713
-0.000187638
-0.000199223
-0.000206485
-0.000215871
-0.000221185
-0.000226435
-0.000228463
-0.000227932
-0.000225618
-0.000218421
-0.000211344
-0.000197706
-0.00018633
-0.000167663
-0.000153336
-0.00013199
-0.000116074
-9.46751e-05
-7.71103e-05
-5.18055e-05
-3.59929e-05
-1.65259e-05
-7.08635e-06
-1.95635e-06
6.35537e-06
9.46275e-06
3.178e-05
5.77013e-05
0.000105353
0.000166588
0.000238419
0.000327542
0.000414308
0.000514268
0.000612244
0.000717876
0.000838619
0.000966863
0.00111006
0.00123727
0.00131
0.00148535
0.00140549
0.00127459
0.00111269
0.000956702
0.000808567
0.000674685
0.000553808
0.000441067
0.000342083
0.000253153
0.000177693
0.000118737
7.06221e-05
4.13471e-05
1.85199e-05
9.64696e-06
2.60081e-06
1.52276e-07
-2.41522e-06
-6.93076e-06
-1.08061e-05
-1.77103e-05
-2.3003e-05
-3.02541e-05
-3.60975e-05
-4.41922e-05
-5.02002e-05
-5.82805e-05
-6.37468e-05
-7.08478e-05
-7.50398e-05
-8.03792e-05
-8.29038e-05
-8.61104e-05
-8.69882e-05
-8.81597e-05
-8.77546e-05
-8.73746e-05
-8.62331e-05
-8.50018e-05
-8.36869e-05
-8.23442e-05
-8.133e-05
-8.05323e-05
-8.01742e-05
-8.04445e-05
-8.10002e-05
-8.27306e-05
-8.43922e-05
-8.78586e-05
-9.07688e-05
-9.61231e-05
-0.000100362
-0.000107582
-0.000113119
-0.000121917
-0.000128532
-0.000138256
-0.000145443
-0.000155015
-0.000161927
-0.000169898
-0.000175384
-0.00018014
-0.000182935
-0.000183045
-0.000182085
-0.000176711
-0.000171495
-0.000160722
-0.000151571
-0.000136515
-0.000124602
-0.000107101
-9.36483e-05
-7.56686e-05
-6.11112e-05
-4.04644e-05
-2.77806e-05
-1.21779e-05
-5.03563e-06
9.94658e-07
8.96807e-06
1.75527e-05
4.16367e-05
7.23276e-05
0.00012227
0.000183217
0.000255807
0.00034038
0.000425775
0.000521425
0.000617474
0.000723935
0.000844476
0.000975111
0.00111872
0.00123825
0.00131267
0.00150321
0.00142341
0.00128929
0.0011276
0.000966402
0.0008184
0.000686344
0.000565618
0.000457575
0.000358911
0.000272174
0.000197121
0.000134724
8.69514e-05
5.03201e-05
2.76701e-05
1.21096e-05
5.10193e-06
4.25755e-07
-2.13789e-06
-4.96016e-06
-8.81884e-06
-1.29012e-05
-1.81846e-05
-2.27869e-05
-2.86268e-05
-3.38503e-05
-3.98547e-05
-4.48597e-05
-5.03227e-05
-5.44196e-05
-5.86091e-05
-6.12966e-05
-6.38197e-05
-6.49762e-05
-6.58535e-05
-6.57173e-05
-6.53124e-05
-6.43463e-05
-6.32054e-05
-6.19275e-05
-6.06134e-05
-5.94715e-05
-5.84579e-05
-5.77822e-05
-5.74243e-05
-5.74427e-05
-5.79981e-05
-5.88745e-05
-6.05352e-05
-6.23992e-05
-6.53077e-05
-6.82593e-05
-7.24956e-05
-7.65824e-05
-8.21164e-05
-8.72783e-05
-9.38892e-05
-9.98724e-05
-0.000107055
-0.000113325
-0.000120232
-0.000125935
-0.000131418
-0.000135463
-0.000138256
-0.000139536
-0.000138577
-0.000136296
-0.000131083
-0.000125074
-0.00011593
-0.000106822
-9.49166e-05
-8.38272e-05
-7.03824e-05
-5.90873e-05
-4.45597e-05
-3.2395e-05
-1.97763e-05
-1.10116e-05
-3.88733e-06
3.02702e-06
1.09706e-05
2.77042e-05
5.15901e-05
9.00901e-05
0.000139657
0.000201382
0.000273595
0.000351423
0.000436642
0.000524524
0.000620655
0.000725146
0.000845753
0.000982326
0.00112581
0.00125014
0.00132451
0.00156429
0.00148402
0.00130678
0.00114246
0.000969998
0.00082164
0.00069303
0.000572219
0.000469628
0.000371138
0.000285176
0.000210356
0.000143761
9.61549e-05
5.33745e-05
3.07679e-05
1.18448e-05
4.82732e-06
8.65967e-07
-1.6918e-06
-2.10413e-06
-5.94024e-06
-7.48442e-06
-1.27575e-05
-1.45936e-05
-2.0426e-05
-2.27173e-05
-2.8714e-05
-3.06611e-05
-3.61169e-05
-3.7154e-05
-4.13376e-05
-4.12205e-05
-4.37395e-05
-4.26171e-05
-4.34925e-05
-4.17955e-05
-4.13904e-05
-3.96147e-05
-3.84745e-05
-3.69853e-05
-3.56725e-05
-3.46229e-05
-3.3609e-05
-3.29754e-05
-3.26168e-05
-3.22978e-05
-3.28511e-05
-3.2757e-05
-3.4414e-05
-3.45142e-05
-3.74197e-05
-3.77671e-05
-4.19986e-05
-4.27372e-05
-4.82645e-05
-4.96065e-05
-5.62102e-05
-5.83609e-05
-6.55341e-05
-6.85497e-05
-7.54502e-05
-7.9088e-05
-8.45644e-05
-8.82202e-05
-9.1009e-05
-9.38123e-05
-9.28554e-05
-9.39502e-05
-8.87449e-05
-8.76425e-05
-7.85101e-05
-7.53479e-05
-6.34585e-05
-5.90222e-05
-4.55947e-05
-4.15124e-05
-2.70165e-05
-2.20297e-05
-9.4917e-06
-7.71058e-06
-6.29911e-07
2.75377e-06
1.07078e-05
3.12118e-05
5.50465e-05
0.000101157
0.000150522
0.000215782
0.000287726
0.000361388
0.000446475
0.000524345
0.000620723
0.00071839
0.000839426
0.000987026
0.00113324
0.00130155
0.00137645
0.00159385
0.0015053
0.00132828
0.00115095
0.000978563
0.000825405
0.000696653
0.000578036
0.000475526
0.000381326
0.00029552
0.000222804
0.0001564
0.000106878
6.41627e-05
3.70154e-05
1.80399e-05
7.12752e-06
3.23965e-06
-4.84745e-07
-7.29067e-07
-3.5747e-06
-4.98911e-06
-8.48912e-06
-1.04044e-05
-1.41748e-05
-1.64646e-05
-2.03104e-05
-2.22561e-05