/*--------------------------------*- C++ -*----------------------------------*\
| =========                 |                                                 |
| \\      /  F ield         | OpenFOAM: The Open Source CFD Toolbox           |
|  \\    /   O peration     | Version:  v1806                                 |
|   \\  /    A nd           | Web:      www.OpenFOAM.com                      |
|    \\/     M anipulation  |                                                 |
\*---------------------------------------------------------------------------*/
FoamFile
{
    version     2.0;
    format      ascii;
    class       volScalarField;
    location    "5";
    object      nut;
}
// * * * * * * * * * * * * * * * * * * * * * * * * * * * * * * * * * * * * * //

dimensions      [0 2 -1 0 0 0 0];


internalField   nonuniform List<scalar> 
8000
(
1.31244e-10
1.17732e-10
7.87064e-11
3.84075e-11
4.73406e-11
1.53883e-10
2.56559e-10
2.69974e-10
2.61819e-10
2.55339e-10
2.44314e-10
2.33032e-10
2.195e-10
2.10312e-10
2.12557e-10
2.32201e-10
2.74844e-10
3.47403e-10
4.57359e-10
6.1331e-10
8.2366e-10
1.0854e-09
1.37487e-09
1.69692e-09
2.21859e-09
2.97775e-09
3.97658e-09
5.39482e-09
7.40807e-09
1.04086e-08
1.50609e-08
2.27116e-08
3.57867e-08
5.78422e-08
9.49792e-08
1.64196e-07
3.07566e-07
6.2001e-07
1.17988e-06
1.4317e-06
9.93573e-07
5.78179e-07
3.44116e-07
2.18219e-07
1.47034e-07
1.04112e-07
7.65025e-08
5.75549e-08
4.3907e-08
3.39213e-08
2.66526e-08
2.1354e-08
1.74426e-08
1.44993e-08
1.22387e-08
1.04689e-08
9.06002e-09
7.92225e-09
6.99228e-09
6.224e-09
5.58379e-09
5.04598e-09
4.59161e-09
4.20527e-09
3.87628e-09
3.5949e-09
3.35596e-09
3.15189e-09
2.98303e-09
2.84152e-09
2.73726e-09
2.65744e-09
2.63057e-09
2.62855e-09
2.73905e-09
2.88626e-09
3.41549e-09
4.60853e-09
5.08359e-09
4.85608e-09
4.164e-09
3.37094e-09
2.62274e-09
2.00209e-09
1.53702e-09
1.20243e-09
9.54996e-10
7.69573e-10
6.32117e-10
5.25447e-10
4.42765e-10
3.88711e-10
3.59223e-10
3.50711e-10
3.71261e-10
3.87066e-10
2.93221e-10
2.00639e-10
1.35661e-10
1.06557e-10
1.49349e-08
1.35567e-08
8.97011e-09
4.36232e-09
5.27282e-09
2.02447e-08
3.93839e-08
4.41823e-08
4.34083e-08
4.23155e-08
4.00857e-08
3.77773e-08
3.49915e-08
3.29583e-08
3.28943e-08
3.58145e-08
4.28658e-08
5.57946e-08
7.71014e-08
1.10856e-07
1.63071e-07
2.3838e-07
3.32188e-07
4.42998e-07
6.45694e-07
9.81922e-07
1.45209e-06
2.11857e-06
3.01133e-06
4.19847e-06
5.75139e-06
7.79044e-06
1.0449e-05
1.38171e-05
1.79847e-05
2.3274e-05
3.00931e-05
3.86008e-05
4.7211e-05
4.99274e-05
4.47909e-05
3.76533e-05
3.13389e-05
2.6221e-05
2.21148e-05
1.87899e-05
1.60527e-05
1.37503e-05
1.17799e-05
1.00904e-05
8.65629e-06
7.44645e-06
6.4261e-06
5.56262e-06
4.82864e-06
4.20219e-06
3.66594e-06
3.20602e-06
2.81127e-06
2.47231e-06
2.18147e-06
1.93201e-06
1.71846e-06
1.53571e-06
1.38001e-06
1.2472e-06
1.13534e-06
1.04088e-06
9.63907e-07
9.00392e-07
8.54726e-07
8.20485e-07
8.10754e-07
8.1213e-07
8.66092e-07
9.37971e-07
1.20818e-06
1.81889e-06
2.05001e-06
1.93871e-06
1.59809e-06
1.20475e-06
8.40358e-07
5.59331e-07
3.73323e-07
2.57641e-07
1.83804e-07
1.35975e-07
1.0445e-07
8.22099e-08
6.62765e-08
5.62378e-08
5.03303e-08
4.77083e-08
4.88159e-08
4.87416e-08
3.51558e-08
2.28063e-08
1.51664e-08
1.19623e-08
1.37991e-07
1.25537e-07
7.63835e-08
3.39361e-08
3.84327e-08
1.98732e-07
4.95599e-07
6.01964e-07
5.97794e-07
5.80772e-07
5.3985e-07
4.9778e-07
4.47633e-07
4.10678e-07
4.05907e-07
4.49258e-07
5.63319e-07
7.88291e-07
1.18173e-06
1.81395e-06
2.73713e-06
3.9127e-06
5.15155e-06
6.37201e-06
8.28134e-06
1.08778e-05
1.38267e-05
1.73041e-05
2.12735e-05
2.58402e-05
3.10502e-05
3.70165e-05
4.37963e-05
5.13328e-05
5.95167e-05
6.84728e-05
7.83303e-05
8.88841e-05
9.83211e-05
0.000101234
9.60493e-05
8.79998e-05
7.99664e-05
7.26388e-05
6.60744e-05
6.01974e-05
5.49087e-05
5.01093e-05
4.5725e-05
4.17293e-05
3.81233e-05
3.48861e-05
3.19836e-05
2.93779e-05
2.70337e-05
2.492e-05
2.30106e-05
2.12835e-05
1.97203e-05
1.83047e-05
1.70232e-05
1.58636e-05
1.48163e-05
1.38713e-05
1.30234e-05
1.2263e-05
1.15908e-05
1.09955e-05
1.04904e-05
1.00586e-05
9.74078e-06
9.49839e-06
9.43655e-06
9.45671e-06
9.86646e-06
1.03862e-05
1.21402e-05
1.53596e-05
1.64464e-05
1.59603e-05
1.43186e-05
1.21482e-05
9.73751e-06
7.42329e-06
5.49913e-06
4.03166e-06
2.93547e-06
2.14976e-06
1.59611e-06
1.19487e-06
9.08461e-07
7.27523e-07
6.15981e-07
5.58648e-07
5.49613e-07
5.31485e-07
3.74983e-07
2.24758e-07
1.41175e-07
1.09658e-07
8.54516e-07
7.80191e-07
4.21862e-07
1.63294e-07
1.64862e-07
1.2685e-06
3.33683e-06
4.06286e-06
4.07752e-06
3.9853e-06
3.73662e-06
3.47188e-06
3.14495e-06
2.88909e-06
2.83771e-06
3.09313e-06
3.75589e-06
4.94139e-06
6.72689e-06
9.14384e-06
1.21344e-05
1.54457e-05
1.86528e-05
2.19971e-05
2.68849e-05
3.2667e-05
3.86354e-05
4.50297e-05
5.17025e-05
5.87289e-05
6.61195e-05
7.39795e-05
8.23638e-05
9.12292e-05
0.000100492
0.000110287
0.00012072
0.000131524
0.000140893
0.000143913
0.000139214
0.000131416
0.000123268
0.000115559
0.00010843
0.000101859
9.57758e-05
9.01039e-05
8.47777e-05
7.97805e-05
7.51299e-05
7.0816e-05
6.68151e-05
6.30985e-05
5.96392e-05
5.64136e-05
5.34025e-05
5.05906e-05
4.79656e-05
4.55167e-05
4.3236e-05
4.11157e-05
3.91508e-05
3.73346e-05
3.56666e-05
3.41392e-05
3.27598e-05
3.15174e-05
3.04364e-05
2.94988e-05
2.87822e-05
2.82341e-05
2.80378e-05
2.80481e-05
2.8784e-05
2.98032e-05
3.27121e-05
3.79903e-05
4.02673e-05
3.98501e-05
3.73145e-05
3.35168e-05
2.89196e-05
2.40823e-05
1.96129e-05
1.58189e-05
1.26711e-05
1.01508e-05
8.1687e-06
6.5736e-06
5.29843e-06
4.38387e-06
3.74658e-06
3.37659e-06
3.25249e-06
3.15238e-06
2.40172e-06
1.39629e-06
8.46465e-07
6.72098e-07
3.5384e-06
3.29028e-06
1.84705e-06
6.98531e-07
6.14241e-07
5.05917e-06
1.06803e-05
1.25606e-05
1.27647e-05
1.26147e-05
1.20868e-05
1.14683e-05
1.06747e-05
1.00146e-05
9.8495e-06
1.0461e-05
1.20441e-05
1.4723e-05
1.8493e-05
2.32269e-05
2.86199e-05
3.41635e-05
3.94622e-05
4.5443e-05
5.33692e-05
6.15893e-05
6.95213e-05
7.75334e-05
8.55421e-05
9.36709e-05
0.000101974
0.000110585
0.000119579
0.000128935
0.000138588
0.000148663
0.000159236
0.000169986
0.000179141
0.000182243
0.000178097
0.000170758
0.000162814
0.000155111
0.000147855
0.000141064
0.000134697
0.000128693
0.000122996
0.000117592
0.000112508
0.000107737
0.00010326
9.90489e-05
9.50798e-05
9.13303e-05
8.77825e-05
8.44225e-05
8.12394e-05
7.82245e-05
7.53718e-05
7.26761e-05
7.01354e-05
6.77464e-05
6.55125e-05
6.34307e-05
6.15135e-05
5.97561e-05
5.81905e-05
5.68028e-05
5.56933e-05
5.48256e-05
5.44042e-05
5.43067e-05
5.50858e-05
5.62941e-05
5.93284e-05
6.52867e-05
6.85742e-05
6.87009e-05
6.61455e-05
6.17514e-05
5.60541e-05
4.96388e-05
4.31742e-05
3.71418e-05
3.16425e-05
2.67441e-05
2.25373e-05
1.89643e-05
1.59798e-05
1.37725e-05
1.22897e-05
1.15225e-05
1.15394e-05
1.19155e-05
1.02093e-05
5.91803e-06
3.47604e-06
2.88042e-06
8.9901e-06
8.50293e-06
5.38902e-06
2.50001e-06
2.12687e-06
1.19018e-05
2.0869e-05
2.43956e-05
2.53956e-05
2.56115e-05
2.518e-05
2.44607e-05
2.33971e-05
2.24518e-05
2.22532e-05
2.33356e-05
2.59868e-05
3.02361e-05
3.58863e-05
4.25587e-05
4.97232e-05
5.68235e-05
6.37569e-05
7.19822e-05
8.22089e-05
9.20828e-05
0.000101318
0.000110374
0.000119238
0.000128065
0.000136938
0.000146003
0.000155346
0.000164957
0.000174789
0.000184949
0.000195485
0.000206039
0.000214904
0.000218074
0.000214513
0.00020774
0.000200156
0.000192633
0.000185432
0.000178607
0.000172142
0.000165996
0.00016012
0.000154506
0.00014919
0.000144168
0.000139423
0.000134932
0.000130672
0.000126623
0.000122768
0.000119093
0.000115589
0.000112246
0.00010906
0.000106027
0.000103145
0.000100411
9.78313e-05
9.54038e-05
9.31421e-05
9.1046e-05
8.91476e-05
8.74398e-05
8.60227e-05
8.48859e-05
8.42184e-05
8.39401e-05
8.45404e-05
8.56225e-05
8.81555e-05
9.39619e-05
9.79737e-05
9.88212e-05
9.67334e-05
9.24738e-05
8.66642e-05
7.99059e-05
7.28045e-05
6.58335e-05
5.90774e-05
5.25007e-05
4.63316e-05
4.0727e-05
3.57898e-05
3.20957e-05
2.99707e-05
2.94653e-05
3.09641e-05
3.37822e-05
3.19744e-05
1.96098e-05
1.04772e-05
7.8509e-06
1.84178e-05
1.72607e-05
1.15371e-05
6.37494e-06
5.85807e-06
1.97088e-05
3.13675e-05
3.68858e-05
3.92813e-05
4.04196e-05
4.06503e-05
4.03586e-05
3.95571e-05
3.87767e-05
3.88163e-05
4.04194e-05
4.39396e-05
4.93083e-05
5.62092e-05
6.41303e-05
7.24494e-05
8.06703e-05
8.8984e-05
9.91444e-05
0.000111291
0.000122553
0.000132898
0.000142838
0.000152423
0.000161828
0.00017116
0.00018057
0.000190151
0.000199906
0.0002098
0.000219929
0.000230315
0.000240582
0.000249106
0.000252337
0.000249384
0.000243257
0.000236146
0.000228932
0.000221913
0.000215178
0.000208734
0.000202562
0.000196618
0.0001909
0.000185455
0.000180281
0.000175365
0.000170688
0.000166231
0.000161975
0.000157905
0.000154008
0.000150275
0.000146698
0.000143273
0.000139996
0.000136865
0.000133879
0.000131043
0.000128357
0.000125834
0.000123476
0.000121314
0.000119348
0.000117666
0.000116284
0.000115369
0.000114872
0.000115203
0.000116
0.000117829
0.00012317
0.000127712
0.000129324
0.000127914
0.00012413
0.000118674
0.000112182
0.000105201
9.81718e-05
9.1133e-05
8.3901e-05
7.6755e-05
7.00159e-05
6.39369e-05
5.95156e-05
5.76572e-05
5.85392e-05
6.27564e-05
6.89856e-05
6.81457e-05
4.82291e-05
2.67053e-05
1.77702e-05
3.43772e-05
3.13919e-05
2.1289e-05
1.23395e-05
1.16311e-05
2.73747e-05
4.12056e-05
4.87771e-05
5.28684e-05
5.52703e-05
5.65206e-05
5.70392e-05
5.69158e-05
5.66927e-05
5.72293e-05
5.93888e-05
6.35872e-05
6.97371e-05
7.75027e-05
8.63256e-05
9.55484e-05
0.000104756
0.00011438
0.000126323
0.000140218
0.000152776
0.00016417
0.000174945
0.000185203
0.000195138
0.000204875
0.000214571
0.000224324
0.00023415
0.000244029
0.000254044
0.000264201
0.000274116
0.000282269
0.000285561
0.000283231
0.00027781
0.000271267
0.000264467
0.000257737
0.000251195
0.000244871
0.000238765
0.00023284
0.0002271
0.000221603
0.000216349
0.00021133
0.000206531
0.000201937
0.000197531
0.0001933
0.000189233
0.000185322
0.00018156
0.000177942
0.000174466
0.000171131
0.000167936
0.000164885
0.000161979
0.000159231
0.000156645
0.000154249
0.000152048
0.000150122
0.000148505
0.00014734
0.000146603
0.000146627
0.000147059
0.000148129
0.000152885
0.000157816
0.000160197
0.000159577
0.000156461
0.000151611
0.000145689
0.000139192
0.000132524
0.000125674
0.000118339
0.000110844
0.000103655
9.71872e-05
9.2811e-05
9.19083e-05
9.47095e-05
0.00010168
0.000110613
0.000110261
8.64097e-05
5.47519e-05
3.62417e-05
5.79103e-05
5.18449e-05
3.58555e-05
2.06553e-05
1.85997e-05
3.49474e-05
5.02681e-05
5.97789e-05
6.56743e-05
6.95241e-05
7.19868e-05
7.35366e-05
7.43357e-05
7.49144e-05
7.61318e-05
7.89113e-05
8.37302e-05
9.05335e-05
9.90158e-05
0.000108615
0.000118669
0.000128848
0.000139779
0.000153416
0.000168954
0.000182763
0.00019518
0.000206769
0.000217678
0.000228116
0.000238226
0.000248169
0.000258049
0.000267894
0.000277702
0.000287545
0.000297417
0.000306942
0.000314708
0.000318068
0.000316367
0.000311698
0.0003058
0.000299504
0.000293158
0.0002869
0.000280784
0.000274827
0.000268995
0.000263312
0.000257832
0.000252562
0.000247498
0.000242632
0.000237951
0.000233443
0.000229095
0.000224899
0.000220849
0.000216938
0.000213162
0.00020952
0.000206011
0.000202634
0.000199394
0.000196293
0.000193342
0.000190547
0.000187935
0.000185515
0.000183356
0.000181508
0.000180095
0.000179105
0.000178803
0.000178823
0.000179129
0.000183251
0.000188462
0.0001916
0.000191845
0.000189538
0.000185469
0.000180317
0.000174525
0.000168454
0.000162036
0.000154878
0.000147356
0.000140072
0.00013362
0.000129704
0.000130046
0.000134856
0.000144288
0.000155232
0.000154796
0.000128225
9.05084e-05
6.38656e-05
8.75248e-05
7.78345e-05
5.56005e-05
3.19559e-05
2.66874e-05
4.26547e-05
5.87056e-05
6.99147e-05
7.76014e-05
8.29971e-05
8.67847e-05
8.95034e-05
9.13817e-05
9.2929e-05
9.49723e-05
9.84562e-05
0.000103914
0.000111348
0.000120506
0.000130848
0.000141729
0.000152904
0.000165153
0.000180417
0.0001975
0.000212531
0.000225952
0.00023834
0.000249885
0.000260809
0.000271271
0.000281435
0.000291411
0.000301242
0.000310939
0.000320572
0.000330125
0.000339238
0.000346621
0.00035006
0.000348987
0.000345099
0.000339908
0.000334194
0.000328313
0.000322424
0.000316597
0.000310868
0.000305199
0.000299644
0.000294248
0.000289022
0.000283971
0.000279091
0.000274372
0.000269806
0.000265383
0.000261098
0.000256944
0.000252918
0.000249016
0.000245237
0.000241581
0.000238048
0.000234643
0.000231368
0.000228234
0.000225248
0.000222435
0.000219807
0.000217427
0.000215354
0.000213698
0.000212448
0.00021181
0.000211393
0.000210956
0.000214428
0.000219827
0.0002237
0.000224866
0.000223484
0.000220344
0.000216123
0.000211206
0.000205902
0.000200084
0.000193285
0.000185936
0.000178768
0.000172562
0.000169333
0.000171045
0.000177842
0.000189472
0.000201938
0.00020101
0.000171981
0.000130026
9.77791e-05
0.000121267
0.000107969
7.9945e-05
4.68073e-05
3.6174e-05
5.06489e-05
6.69073e-05
7.93187e-05
8.86756e-05
9.56515e-05
0.000100829
0.000104806
0.000107873
0.000110519
0.000113517
0.000117803
0.000123955
0.000132045
0.000141884
0.000152974
0.000164703
0.000176909
0.000190486
0.00020731
0.000225845
0.00024206
0.000256464
0.000269639
0.000281808
0.000293207
0.000304006
0.000314375
0.000324431
0.000334227
0.000343793
0.000353195
0.000362414
0.000371111
0.000378131
0.000381661
0.000381208
0.00037812
0.000373682
0.000368614
0.000363272
0.000357825
0.000352361
0.000346926
0.000341498
0.000336138
0.000330888
0.000325767
0.000320785
0.000315942
0.000311235
0.000306657
0.000302203
0.000297868
0.000293648
0.000289541
0.000285545
0.00028166
0.000277885
0.000274223
0.000270676
0.00026725
0.000263954
0.000260796
0.0002578
0.000254979
0.000252392
0.000250103
0.000248211
0.000246702
0.000245728
0.000244864
0.000243719
0.00024655
0.000252065
0.000256643
0.00025877
0.000258413
0.000256334
0.000253186
0.000249293
0.000244903
0.000239825
0.000233534
0.000226517
0.000219629
0.000213841
0.000211453
0.000214603
0.000223329
0.000236909
0.000250476
0.000248737
0.000217319
0.000171826
0.000135448
0.000157952
0.000141235
0.000108062
6.54708e-05
4.74529e-05
5.90982e-05
7.52282e-05
8.8185e-05
9.89775e-05
0.000107505
0.000114096
0.000119382
0.000123714
0.000127561
0.000131633
0.000136827
0.00014375
0.000152545
0.000163096
0.000174957
0.000187564
0.000200837
0.000215744
0.000234053
0.000253943
0.000271297
0.000286658
0.000300604
0.000313389
0.000325255
0.000336386
0.000346954
0.000357083
0.00036684
0.000376268
0.000385435
0.000394324
0.000402614
0.000409306
0.000412943
0.000413098
0.000410812
0.00040716
0.000402791
0.000398048
0.000393111
0.000388076
0.000383001
0.000377883
0.000372781
0.000367739
0.000362782
0.000357925
0.000353173
0.000348527
0.000343984
0.000339542
0.000335199
0.000330953
0.000326802
0.000322747
0.000318788
0.000314926
0.000311163
0.000307503
0.000303951
0.000300517
0.000297208
0.000294049
0.000291055
0.000288279
0.00028579
0.000283674
0.000281914
0.000280612
0.000279308
0.000277507
0.000279721
0.000285293
0.000290543
0.000293661
0.000294418
0.000293517
0.000291573
0.000288839
0.000285496
0.000281285
0.000275643
0.000269105
0.000262645
0.000257427
0.000256004
0.000260628
0.00027119
0.00028645
0.00030071
0.00029789
0.000264143
0.000215471
0.000175686
0.000197012
0.000177074
0.000139331
8.79142e-05
6.09405e-05
6.82318e-05
8.38946e-05
9.67745e-05
0.00010863
0.000118606
0.000126595
0.000133203
0.000138837
0.00014396
0.000149211
0.000155423
0.000163207
0.000172772
0.00018408
0.000196747
0.000210268
0.000224636
0.000240865
0.00026058
0.000281718
0.000300156
0.000316444
0.000331147
0.000344539
0.000356872
0.000368335
0.000379105
0.000389312
0.000399037
0.000408337
0.000417281
0.000425861
0.000433766
0.000440179
0.00044394
0.000444684
0.000443193
0.000440346
0.000436713
0.000432621
0.00042825
0.000423707
0.000419053
0.000414306
0.000409522
0.000404748
0.000400013
0.000395336
0.000390728
0.000386193
0.000381734
0.00037735
0.000373043
0.000368812
0.000364657
0.00036058
0.000356583
0.000352667
0.000348835
0.000345093
0.000341444
0.000337899
0.000334467
0.000331171
0.000328026
0.000325085
0.000322416
0.000320098
0.000318102
0.00031649
0.000314769
0.000312377
0.000314019
0.000319604
0.000325492
0.000329619
0.000331563
0.000331947
0.000331323
0.000329871
0.000327697
0.000324475
0.000319614
0.000313699
0.000307813
0.000303309
0.000302957
0.000309061
0.000321324
0.000337959
0.000352498
0.000348364
0.000312382
0.000260813
0.000218023
0.000238171
0.000215191
0.000173375
0.000113969
7.70299e-05
7.83509e-05
9.2985e-05
0.000105533
0.000117809
0.000129037
0.000138362
0.000146265
0.000153198
0.000159635
0.000166147
0.00017348
0.000182224
0.000192639
0.00020476
0.000218275
0.000232746
0.000248233
0.000265762
0.000286794
0.000309071
0.000328533
0.000345714
0.000361158
0.000375152
0.000387952
0.000399754
0.000410739
0.000421042
0.000430755
0.000439949
0.0004487
0.000456997
0.000464561
0.000470749
0.000474654
0.000475965
0.000475253
0.000473216
0.000470345
0.000466942
0.000463185
0.000459185
0.000455009
0.000450688
0.000446279
0.000441829
0.000437372
0.00043293
0.000428518
0.000424146
0.000419819
0.000415541
0.000411314
0.000407141
0.000403025
0.000398966
0.000394969
0.000391037
0.000387172
0.000383381
0.000379669
0.000376046
0.000372522
0.000369118
0.000365853
0.000362776
0.000359955
0.000357459
0.000355253
0.00035336
0.000351261
0.000348361
0.000349488
0.000355062
0.000361553
0.000366698
0.000369891
0.00037165
0.00037245
0.000372389
0.000371492
0.000369371
0.000365421
0.000360272
0.000355106
0.000351454
0.000352257
0.000359814
0.000373599
0.000391261
0.000405663
0.00040002
0.000361943
0.000307763
0.000262252
0.000281269
0.000255409
0.000209968
0.000143462
9.60711e-05
8.98303e-05
0.000102569
0.000114784
0.000126738
0.000138912
0.000149461
0.000158591
0.000166777
0.000174519
0.00018234
0.000190885
0.000200686
0.000212039
0.000225039
0.00023945
0.000254909
0.00027153
0.000290328
0.000312583
0.000335885
0.000356304
0.000374342
0.00039051
0.000405103
0.000418377
0.000430534
0.000441754
0.00045218
0.000461914
0.000471038
0.000479637
0.000487686
0.00049497
0.000500994
0.000505062
0.000506917
0.000506957
0.000505723
0.000503628
0.000500941
0.000497836
0.000494423
0.000490774
0.000486929
0.000482945
0.000478872
0.000474745
0.000470591
0.000466427
0.000462269
0.000458124
0.000453999
0.000449899
0.00044583
0.000441795
0.000437797
0.000433842
0.000429933
0.000426074
0.000422273
0.000418535
0.00041487
0.000411289
0.000407814
0.000404463
0.000401285
0.000398346
0.000395708
0.000393328
0.000391195
0.000388774
0.000385461
0.00038615
0.000391704
0.000398769
0.000404931
0.000409419
0.000412627
0.000414937
0.000416359
0.000416835
0.000415917
0.000413002
0.000408757
0.000404455
0.000401785
0.000403807
0.000412752
0.000427831
0.000446138
0.000459988
0.000452681
0.000412694
0.000356225
0.000308245
0.000326179
0.000297599
0.000248955
0.00017626
0.00011837
0.000103111
0.000112769
0.000124634
0.000135894
0.000148398
0.000159984
0.000170238
0.000179583
0.000188571
0.000197701
0.000207517
0.000218466
0.000230845
0.000244798
0.000260162
0.000276644
0.000294408
0.000314434
0.000337816
0.000362028
0.000383337
0.000402194
0.000419071
0.000434263
0.000448023
0.000460555
0.000472039
0.000482623
0.000492421
0.000501523
0.000510015
0.000517868
0.000524942
0.000530866
0.000535121
0.000537494
0.000538254
0.000537805
0.000536485
0.000534532
0.000532104
0.000529313
0.000526231
0.000522905
0.000519394
0.000515745
0.000511998
0.000508181
0.000504316
0.00050042
0.000496506
0.000492582
0.000488657
0.000484737
0.000480829
0.000476937
0.000473067
0.000469224
0.000465414
0.000461644
0.000457921
0.000454255
0.000450658
0.000447152
0.000443757
0.000440519
0.000437504
0.000434767
0.000432258
0.000429938
0.000427267
0.000423653
0.000423996
0.000429541
0.000437154
0.000444328
0.000450141
0.000454854
0.000458741
0.000461718
0.000463644
0.000464021
0.000462256
0.000459048
0.000455747
0.000454175
0.000457453
0.000467683
0.000483782
0.000502322
0.00051522
0.000506135
0.000464469
0.000406071
0.000355882
0.000372767
0.000341633
0.000290203
0.00021226
0.000144193
0.000118688
0.000123807
0.000135089
0.000145699
0.000157721
0.000170059
0.000181293
0.000191666
0.000201783
0.000212163
0.000223267
0.00023543
0.000248921
0.000263905
0.000280278
0.000297819
0.00031673
0.000337936
0.000362349
0.000387358
0.000409489
0.00042913
0.000446702
0.000462495
0.000476757
0.00048969
0.000501475
0.000512262
0.000522174
0.000531311
0.00053974
0.000547469
0.000554411
0.0005603
0.000564762
0.00056763
0.000569072
0.000569383
0.000568829
0.000567613
0.00056588
0.000563736
0.000561253
0.000558482
0.000555482
0.000552301
0.000548978
0.000545544
0.000542025
0.00053844
0.000534804
0.000531129
0.000527426
0.000523703
0.000519967
0.000516227
0.000512488
0.000508756
0.00050504
0.000501345
0.000497681
0.000494059
0.000490492
0.000487001
0.000483608
0.000480357
0.000477316
0.000474532
0.00047195
0.000469508
0.000466675
0.000462883
0.000462989
0.000468552
0.000476698
0.000484873
0.000492026
0.000498279
0.000503787
0.000508372
0.000511808
0.000513555
0.000513043
0.000510995
0.000508822
0.000508448
0.000512986
0.000524354
0.000541156
0.000559501
0.000571068
0.000560136
0.000517061
0.000457136
0.000405023
0.00042088
0.000387374
0.000333574
0.000251356
0.000173768
0.000137093
0.000136034
0.000146143
0.000156297
0.000167429
0.000179868
0.000191879
0.000203115
0.000214193
0.000225697
0.000238045
0.000251451
0.000266121
0.000282208
0.000299652
0.00031829
0.000338345
0.000360678
0.000386022
0.000411727
0.000434618
0.000455006
0.000473263
0.000489663
0.000504447
0.000517811
0.000529937
0.000540979
0.000551063
0.000560285
0.000568715
0.000576398
0.000583288
0.000589209
0.000593903
0.000597243
0.000599328
0.000600364
0.000600557
0.000600073
0.000599041
0.00059756
0.000595699
0.000593511
0.000591055
0.000588378
0.000585519
0.000582511
0.000579381
0.000576152
0.00057284
0.00056946
0.000566025
0.000562545
0.00055903
0.000555487
0.000551925
0.000548352
0.000544776
0.000541205
0.000537648
0.000534118
0.000530629
0.000527204
0.000523864
0.000520657
0.000517645
0.000514873
0.000512283
0.000509799
0.000506904
0.00050307
0.00050306
0.00050869
0.000517362
0.000526521
0.000535015
0.000542822
0.000549974
0.000556194
0.000561177
0.000564353
0.000565183
0.000564405
0.000563471
0.000564369
0.000570137
0.000582452
0.000599604
0.000617316
0.00062721
0.000614407
0.000570229
0.000509211
0.000455495
0.000470332
0.000434657
0.000378908
0.000293413
0.00020727
0.000158881
0.000149941
0.000157858
0.000167683
0.000177957
0.00018975
0.000202157
0.00021406
0.000225891
0.000238326
0.000251799
0.000266419
0.000282304
0.000299556
0.000318128
0.000337895
0.000359092
0.000382496
0.000408662
0.000434983
0.000458576
0.000479681
0.000498612
0.000515627
0.000530955
0.000544785
0.000557298
0.000568649
0.000578961
0.00058832
0.000596829
0.000604548
0.000611469
0.000617487
0.000622437
0.00062623
0.000628919
0.000630644
0.000631555
0.000631789
0.000631456
0.000630644
0.00062942
0.000627836
0.00062595
0.000623806
0.000621446
0.000618901
0.000616201
0.000613368
0.000610424
0.000607383
0.000604261
0.00060107
0.00059782
0.000594522
0.000591185
0.000587819
0.000584431
0.000581032
0.000577632
0.000574246
0.000570888
0.000567583
0.000564355
0.000561249
0.00055833
0.000555637
0.000553115
0.000550677
0.000547834
0.000544104
0.00054411
0.000549872
0.000559074
0.000569199
0.000579019
0.000588373
0.000597164
0.000605023
0.000611569
0.000616215
0.000618456
0.00061904
0.000619434
0.000621646
0.000628572
0.0006416
0.00065872
0.000675366
0.000683287
0.000668636
0.000623695
0.000562046
0.000507081
0.000520894
0.000483284
0.000426013
0.00033825
0.000244801
0.000184598
0.000166153
0.000170439
0.00017978
0.000189441
0.000200316
0.000212345
0.000224664
0.00023702
0.000250136
0.000264536
0.000280263
0.000297347
0.000315797
0.000335543
0.000356471
0.000378802
0.00040322
0.000430108
0.000456974
0.000481218
0.000503009
0.000522609
0.000540246
0.000556143
0.000570475
0.000583422
0.000595134
0.000605715
0.000615287
0.000623955
0.000631794
0.000638827
0.000645006
0.00065024
0.00065447
0.000657727
0.000660101
0.0006617
0.00066263
0.000662984
0.00066284
0.00066226
0.000661293
0.000659995
0.00065841
0.000656575
0.000654526
0.00065229
0.000649892
0.000647355
0.000644695
0.000641928
0.00063907
0.000636131
0.000633124
0.000630059
0.000626946
0.000623796
0.00062062
0.00061743
0.000614241
0.00061107
0.000607943
0.000604887
0.000601949
0.00059919
0.000596651
0.00059428
0.000591986
0.000589318
0.000585841
0.000586008
0.000591981
0.000601725
0.000612796
0.000623914
0.000634784
0.000645186
0.000654661
0.000662763
0.000668897
0.000672599
0.000674612
0.000676397
0.000679929
0.000687895
0.000701362
0.000718044
0.000733208
0.000738906
0.000722478
0.000677142
0.000615341
0.000559521
0.000572295
0.000533018
0.000474663
0.000385625
0.000286362
0.000214747
0.000185409
0.00018429
0.000192536
0.00020185
0.00021186
0.000223076
0.00023515
0.000247765
0.000261277
0.000276333
0.000292975
0.000311166
0.0003308
0.000351744
0.000373851
0.000397307
0.000422684
0.0004502
0.00047755
0.000502399
0.000524849
0.000545108
0.000563377
0.000579867
0.000594736
0.000608156
0.00062026
0.00063118
0.000641039
0.000649948
0.00065799
0.000665213
0.000671617
0.000677162
0.000681821
0.000685614
0.000688599
0.000690852
0.000692452
0.000693477
0.000693993
0.000694056
0.000693712
0.000693015
0.000692005
0.000690719
0.000689191
0.00068745
0.00068552
0.000683425
0.000681184
0.000678813
0.000676329
0.000673745
0.000671073
0.000668326
0.000665515
0.000662652
0.00065975
0.000656822
0.000653886
0.000650959
0.000648071
0.000645252
0.000642549
0.000640025
0.000637718
0.000635587
0.000633543
0.000631178
0.000628111
0.000628587
0.000634861
0.000645168
0.000657163
0.000669536
0.000681872
0.000693831
0.000704873
0.000714498
0.000722114
0.000727302
0.000730785
0.000733987
0.000738801
0.000747642
0.000761233
0.000777062
0.000790357
0.000793642
0.000775555
0.00073022
0.00066875
0.000612502
0.000624211
0.000583574
0.000524585
0.000435236
0.000331825
0.000249741
0.000208521
0.000200047
0.000206045
0.00021505
0.000224466
0.000234772
0.000246105
0.000258376
0.000271965
0.000287353
0.000304624
0.000323741
0.000344476
0.0003666
0.000389885
0.000414446
0.000440717
0.000468787
0.000496565
0.000521977
0.000545054
0.000565965
0.000584869
0.000601974
0.000617394
0.00063131
0.000643865
0.000655191
0.000665411
0.000674638
0.000682963
0.000690454
0.000697142
0.00070303
0.000708117
0.000712422
0.000715984
0.000718856
0.000721099
0.000722773
0.000723937
0.000724637
0.000724917
0.000724826
0.000724403
0.000723683
0.000722698
0.000721477
0.000720044
0.000718424
0.000716635
0.000714697
0.000712626
0.000710437
0.000708144
0.00070576
0.000703298
0.000700771
0.000698193
0.000695581
0.000692952
0.00069033
0.000687743
0.000685227
0.00068283
0.000680616
0.000678625
0.000676828
0.000675143
0.000673212
0.000670706
0.000671643
0.000678315
0.000689213
0.000702107
0.000715679
0.000729406
0.000742842
0.000755377
0.000766469
0.000775538
0.000782206
0.000787165
0.000791769
0.000797775
0.000807277
0.000820646
0.000835208
0.000846289
0.000847036
0.00082745
0.0007825
0.000721871
0.000665657
0.000676264
0.000634615
0.000575458
0.000486716
0.000380914
0.000289839
0.000236315
0.000218574
0.000220646
0.000228918
0.00023803
0.000247597
0.000258025
0.000269482
0.000282492
0.000297835
0.000315378
0.000335141
0.000356803
0.000380026
0.000404448
0.000430077
0.000457167
0.000485727
0.000513881
0.000539813
0.000563481
0.000585027
0.00060456
0.000622253
0.000638246
0.000652704
0.000665765
0.000677559
0.000688211
0.00069783
0.000706515
0.000714346
0.000721377
0.000727642
0.000733163
0.000737964
0.000742076
0.000745539
0.000748397
0.000750699
0.000752494
0.000753822
0.000754722
0.000755239
0.000755411
0.000755268
0.000754843
0.000754162
0.000753251
0.000752132
0.000750828
0.000749356
0.000747734
0.000745979
0.000744104
0.000742126
0.000740057
0.000737914
0.000735711
0.000733467
0.000731203
0.000728943
0.00072672
0.000724574
0.000722556
0.000720729
0.000719139
0.00071777
0.000716554
0.000715185
0.000713389
0.000714933
0.000722104
0.000733621
0.000747384
0.000762085
0.00077711
0.000791919
0.000805846
0.000818321
0.000828783
0.000836895
0.000843297
0.000849238
0.000856293
0.000866192
0.000878967
0.000891865
0.000900442
0.000898594
0.000877707
0.000833486
0.000774248
0.000718564
0.000728016
0.000685747
0.000626909
0.000539639
0.000433204
0.000335089
0.000269547
0.000240915
0.000237009
0.000243504
0.000252352
0.000261502
0.000271123
0.000281605
0.000293631
0.000308134
0.000325504
0.000345543
0.00036785
0.000392008
0.000417466
0.000444093
0.00047192
0.000500906
0.000529375
0.000555776
0.000579979
0.000602089
0.000622219
0.00064051
0.000657099
0.000672134
0.000685748
0.000698069
0.000709214
0.000719295
0.000728412
0.000736651
0.000744083
0.000750763
0.000756733
0.000762025
0.00076667
0.000770699
0.000774149
0.000777059
0.000779469
0.000781414
0.000782928
0.000784053
0.000784822
0.000785266
0.000785413
0.000785289
0.00078492
0.000784328
0.000783535
0.00078256
0.00078142
0.000780134
0.000778717
0.000777184
0.000775553
0.000773838
0.000772059
0.000770235
0.000768389
0.00076655
0.000764754
0.000763044
0.000761476
0.000760114
0.00075901
0.000758163
0.000757522
0.000756836
0.000755888
0.000758177
0.000765942
0.000778103
0.000792698
0.000808443
0.000824651
0.000840704
0.000855896
0.000869643
0.00088141
0.000890889
0.000898652
0.000905814
0.000913715
0.000923703
0.0009355
0.000946366
0.000952219
0.00094779
0.000925834
0.0008827
0.000825378
0.000770741
0.000778968
0.000736512
0.000678499
0.000593515
0.000488129
0.00038527
0.000308794
0.000268208
0.000256156
0.000259191
0.000267288
0.000276262
0.000285383
0.000294986
0.000305879
0.00031916
0.000335586
0.000355261
0.000377811
0.000402639
0.000428944
0.000456443
0.000484908
0.000514251
0.000542944
0.000569667
0.000594323
0.000616955
0.000637655
0.00065654
0.000673734
0.000689371
0.000703577
0.00071647
0.000728166
0.000738771
0.000748383
0.000757095
0.000764985
0.000772123
0.000778565
0.000784355
0.000789525
0.000794107
0.000798132
0.000801634
0.000804646
0.000807198
0.00080932
0.00081105
0.000812419