/*--------------------------------*- C++ -*----------------------------------*\
| =========                 |                                                 |
| \\      /  F ield         | OpenFOAM: The Open Source CFD Toolbox           |
|  \\    /   O peration     | Version:  v1806                                 |
|   \\  /    A nd           | Web:      www.OpenFOAM.com                      |
|    \\/     M anipulation  |                                                 |
\*---------------------------------------------------------------------------*/
FoamFile
{
    version     2.0;
    format      ascii;
    class       volScalarField;
    location    "5";
    object      k;
}
// * * * * * * * * * * * * * * * * * * * * * * * * * * * * * * * * * * * * * //

dimensions      [0 2 -2 0 0 0 0];


internalField   nonuniform List<scalar> 
8000
(
5.95545e-05
5.28274e-05
3.56914e-05
1.84604e-05
2.06428e-05
5.41904e-05
7.26179e-05
6.68011e-05
5.84058e-05
5.19671e-05
4.65007e-05
4.20399e-05
3.8205e-05
3.56346e-05
3.48589e-05
3.63355e-05
4.03764e-05
4.72478e-05
5.733e-05
7.11917e-05
8.92487e-05
0.000111433
0.000137305
0.000169599
0.000217419
0.000278052
0.000349201
0.000437018
0.000543756
0.000675922
0.000840019
0.00104587
0.00130185
0.00160827
0.00196141
0.00237114
0.0028443
0.00336495
0.00383456
0.00398227
0.0037329
0.00334818
0.00296821
0.00262689
0.00232765
0.00206672
0.00183841
0.00163652
0.00145631
0.00129626
0.00115651
0.00103575
0.000931773
0.000842096
0.000764468
0.000696971
0.00063804
0.000586391
0.000540976
0.000500913
0.000465484
0.000434067
0.000406168
0.000381331
0.000359244
0.000339569
0.00032217
0.000306736
0.000293384
0.000281737
0.000272482
0.000264926
0.000260849
0.000258618
0.000263431
0.000270602
0.000298072
0.000360703
0.000394375
0.000400065
0.000383608
0.000357261
0.000326237
0.000294036
0.000264188
0.000238289
0.000214859
0.000193638
0.000176678
0.000163151
0.000153295
0.00015056
0.000155146
0.000165439
0.000185141
0.00019799
0.00015456
0.000104142
6.91322e-05
5.27343e-05
0.00112051
0.0009993
0.000674275
0.000347501
0.000354301
0.000905815
0.00119957
0.00110579
0.000966987
0.00085987
0.000769785
0.000696699
0.000634428
0.000592684
0.000580328
0.000605033
0.000672311
0.000786931
0.000955016
0.00118478
0.00148078
0.00183801
0.00224341
0.00273001
0.00340542
0.00417798
0.00496695
0.0057756
0.00656663
0.00732584
0.0080308
0.00866687
0.00921571
0.00966011
0.00999433
0.0102269
0.0103678
0.0104338
0.0104558
0.0104794
0.0105198
0.0105459
0.0105356
0.0104819
0.0103852
0.0102489
0.010077
0.009873
0.00963843
0.00937701
0.00909625
0.00880213
0.00849964
0.00819281
0.00788485
0.00757842
0.00727578
0.00697893
0.00668963
0.00640932
0.00613931
0.00588058
0.00563409
0.00540032
0.00518021
0.0049736
0.00478206
0.00460502
0.00444563
0.00430182
0.00418256
0.00408194
0.00402055
0.00398146
0.00402138
0.00408708
0.00435567
0.00492612
0.00524906
0.00538235
0.0053503
0.00520408
0.00495649
0.00462874
0.00427333
0.00393322
0.00360555
0.00329745
0.00304241
0.00283531
0.00268566
0.00265201
0.00274173
0.00293751
0.00328591
0.00352892
0.00288568
0.00199018
0.00133838
0.00102265
0.00431355
0.00387839
0.0026064
0.00134652
0.00126268
0.00313331
0.00403266
0.00370062
0.00323818
0.00288178
0.0025863
0.00234808
0.00214719
0.00201229
0.00197205
0.00205089
0.00226351
0.00261581
0.00310679
0.00372776
0.00445155
0.00524056
0.00607581
0.0070398
0.00821471
0.00934667
0.010343
0.0112245
0.0119826
0.0126231
0.0131464
0.0135547
0.0138477
0.0140278
0.0141021
0.0140772
0.0139626
0.0137844
0.0136133
0.0135864
0.0137368
0.0139425
0.0141272
0.0142667
0.0143568
0.0144004
0.0144023
0.0143675
0.0142985
0.0141978
0.0140704
0.0139197
0.0137492
0.013562
0.0133608
0.0131479
0.0129255
0.0126952
0.0124589
0.012218
0.0119741
0.0117285
0.0114827
0.011238
0.010996
0.0107577
0.0105254
0.0102994
0.0100844
0.0098803
0.00969755
0.00953318
0.00940843
0.00930989
0.00929128
0.00930032
0.0094779
0.00997153
0.0103768
0.0107267
0.0110197
0.0112636
0.011434
0.0114807
0.0113858
0.0111692
0.0108191
0.0103625
0.00990728
0.00949127
0.00917765
0.00916379
0.00950614
0.0101858
0.0112907
0.0121146
0.0104967
0.00751817
0.00520869
0.00406773
0.0107277
0.00973105
0.00659952
0.00348889
0.00299839
0.00698704
0.00827506
0.00743246
0.00649874
0.00579531
0.00523904
0.00479777
0.00443714
0.0041949
0.00411601
0.00423788
0.00456845
0.00508377
0.00574433
0.00651001
0.0073404
0.00821592
0.0091585
0.0102642
0.0115196
0.0126473
0.013599
0.0144081
0.0150801
0.015625
0.0160477
0.0163529
0.0165437
0.0166262
0.0166099
0.0165004
0.0163072
0.016059
0.0158356
0.015794
0.0159711
0.0162259
0.0164684
0.0166683
0.0168198
0.016925
0.0169887
0.0170162
0.0170103
0.0169731
0.0169093
0.0168217
0.0167133
0.016587
0.0164454
0.0162907
0.0161249
0.0159495
0.015766
0.0155756
0.0153795
0.0151789
0.0149746
0.0147676
0.0145591
0.0143495
0.0141405
0.0139324
0.0137277
0.0135271
0.013338
0.0131599
0.0130061
0.0128709
0.012786
0.0127219
0.0127554
0.0130741
0.0134764
0.0139522
0.0144853
0.0150744
0.0157069
0.0163286
0.0168823
0.0173358
0.017631
0.0177481
0.0177869
0.0178067
0.0179031
0.0183658
0.0193281
0.0207949
0.0228079
0.0243927
0.0225764
0.0172883
0.01269
0.0104193
0.0197943
0.0181107
0.0129056
0.00732535
0.00590906
0.0118454
0.0125048
0.0109403
0.00952679
0.00849633
0.00772495
0.00712966
0.0066673
0.0063609
0.00624599
0.00635391
0.00667868
0.00717909
0.00781139
0.00854284
0.00934681
0.0102221
0.0112047
0.0123722
0.0136573
0.0147885
0.0157358
0.0165319
0.0171861
0.0177089
0.0181067
0.0183846
0.018547
0.0186014
0.0185578
0.0184221
0.0182049
0.0179363
0.017699
0.0176518
0.0178311
0.0180964
0.0183543
0.0185721
0.0187425
0.018867
0.0189501
0.0189972
0.019011
0.0189938
0.0189502
0.0188828
0.0187945
0.0186882
0.0185664
0.0184314
0.018285
0.0181287
0.017964
0.0177921
0.0176138
0.0174302
0.0172421
0.0170501
0.0168552
0.0166577
0.0164586
0.0162584
0.0160587
0.0158598
0.0156676
0.0154827
0.0153149
0.0151612
0.0150449
0.0149466
0.0149237
0.0151671
0.0155692
0.0161142
0.0167794
0.0175618
0.0184563
0.0194155
0.0203785
0.0213024
0.0221231
0.0228122
0.023461
0.02414
0.0249547
0.0261837
0.0279577
0.0302445
0.0329524
0.0351293
0.0341281
0.0284164
0.0225039
0.0196931
0.0282686
0.0260886
0.0200211
0.0128858
0.010361
0.0166125
0.0161222
0.0138158
0.0119453
0.0106212
0.00966348
0.00894198
0.00840268
0.00804892
0.00789793
0.00796856
0.00824854
0.00869892
0.00928578
0.00998566
0.0107793
0.0116715
0.0126997
0.0139239
0.0152501
0.0164123
0.0173863
0.0182021
0.0188703
0.019402
0.0198043
0.0200832
0.0202442
0.0202957
0.0202479
0.020108
0.0198874
0.0196176
0.0193816
0.0193319
0.019503
0.0197624
0.0200183
0.0202365
0.0204086
0.0205354
0.0206212
0.0206711
0.0206878
0.0206735
0.0206329
0.0205687
0.0204835
0.0203802
0.0202614
0.0201293
0.0199857
0.0198322
0.0196701
0.0195006
0.0193247
0.0191431
0.0189568
0.0187662
0.0185721
0.018375
0.0181756
0.0179743
0.0177725
0.0175702
0.017373
0.0171817
0.0170052
0.0168417
0.0167123
0.0166026
0.0165671
0.0167884
0.0171995
0.017791
0.0185382
0.0194379
0.0204862
0.0216379
0.0228321
0.0240231
0.0251488
0.0261878
0.0272342
0.0283707
0.0297151
0.0315212
0.0338818
0.0367097
0.0397908
0.0422437
0.0419261
0.0372336
0.0314266
0.0285793
0.0344992
0.0320908
0.0261525
0.0190394
0.016068
0.0209844
0.0193768
0.0163263
0.0139917
0.0123769
0.0112325
0.0103845
0.00976328
0.009355
0.00916228
0.00919402
0.00943508
0.00985112
0.0104154
0.011109
0.0119156
0.0128417
0.0139232
0.0152081
0.0165862
0.0177926
0.0188065
0.0196552
0.0203502
0.0209031
0.0213218
0.0216133
0.0217842
0.0218435
0.021802
0.0216677
0.0214535
0.0211917
0.0209639
0.020913
0.0210704
0.0213154
0.0215598
0.0217693
0.0219342
0.0220549
0.0221351
0.0221799
0.0221916
0.0221722
0.0221271
0.0220583
0.0219687
0.0218611
0.021738
0.0216015
0.0214536
0.0212957
0.0211293
0.0209554
0.020775
0.0205889
0.020398
0.0202028
0.0200039
0.0198018
0.0195972
0.0193905
0.0191831
0.0189751
0.0187715
0.0185739
0.018391
0.0182217
0.0180874
0.0179771
0.0179466
0.0181685
0.0185953
0.0192244
0.0200319
0.0210139
0.0221657
0.0234415
0.0247799
0.026133
0.0274409
0.0286902
0.0299785
0.0313982
0.0330761
0.0352471
0.0379701
0.0411178
0.0444002
0.0469838
0.0470161
0.0432393
0.0381032
0.035274
0.0388708
0.0363902
0.0308991
0.0245169
0.0218412
0.0251425
0.022545
0.0187208
0.0158894
0.013966
0.0126218
0.0116371
0.0109223
0.0104483
0.0102068
0.0101999
0.0104102
0.010806
0.011364
0.012067
0.0128994
0.0138679
0.0150068
0.0163557
0.0177916
0.0190483
0.0201081
0.0209956
0.0217231
0.0223028
0.0227435
0.0230532
0.0232394
0.0233119
0.023282
0.0231587
0.022956
0.0227071
0.022491
0.0224389
0.0225794
0.0228045
0.0230317
0.0232267
0.0233792
0.0234887
0.0235585
0.0235935
0.0235957
0.0235671
0.023513
0.0234357
0.0233378
0.0232221
0.0230909
0.0229464
0.0227906
0.0226249
0.0224507
0.0222691
0.0220811
0.0218874
0.021689
0.0214862
0.0212799
0.0210704
0.0208585
0.0206445
0.0204299
0.0202151
0.0200047
0.019801
0.0196129
0.0194401
0.019305
0.0191995
0.0191809
0.0194133
0.0198604
0.0205238
0.0213811
0.0224285
0.0236589
0.0250258
0.0264665
0.0279314
0.029363
0.0307542
0.0322052
0.0338156
0.0357183
0.0381351
0.0411013
0.0444622
0.0478785
0.0505404
0.0507503
0.0475083
0.0429277
0.0400769
0.0421114
0.0396024
0.0345665
0.0289423
0.026844
0.0291759
0.0257871
0.0211572
0.0177779
0.0155137
0.0139486
0.0128121
0.0119906
0.0114394
0.0111416
0.0110937
0.0112762
0.0116584
0.0122181
0.0129381
0.0138025
0.0148176
0.0160162
0.0174315
0.0189288
0.0202393
0.0213482
0.0222778
0.023041
0.0236506
0.0241163
0.0244472
0.0246517
0.0247405
0.0247251
0.0246157
0.0244276
0.0241941
0.0239912
0.0239375
0.0240589
0.0242605
0.0244665
0.024643
0.0247792
0.024874
0.0249301
0.0249523
0.0249417
0.0249012
0.0248358
0.0247474
0.0246387
0.0245124
0.024371
0.0242164
0.0240506
0.0238751
0.0236912
0.0235001
0.0233027
0.0230998
0.0228922
0.0226805
0.0224654
0.0222472
0.0220269
0.0218047
0.0215823
0.0213601
0.0211429
0.0209334
0.0207409
0.0205661
0.0204324
0.0203347
0.0203309
0.0205783
0.0210488
0.0217456
0.0226478
0.0237514
0.0250472
0.0264873
0.0280083
0.0295593
0.0310854
0.0325848
0.0341599
0.0359158
0.0379901
0.0405937
0.0437452
0.0472668
0.0507808
0.0534865
0.0537888
0.0508521
0.0466095
0.0436767
0.0447156
0.0421826
0.0375272
0.0324696
0.0309216
0.0329923
0.0291904
0.0237419
0.0197502
0.0171004
0.0152859
0.0139779
0.0130341
0.0123933
0.0120301
0.0119364
0.0120902
0.0124602
0.0130246
0.013765
0.0146646
0.0157287
0.0169885
0.0184723
0.0200335
0.0214005
0.0225609
0.0235347
0.0243357
0.0249771
0.0254698
0.0258238
0.0260485
0.0261553
0.0261563
0.0260626
0.0258905
0.0256737
0.0254845
0.0254285
0.0255291
0.0257047
0.0258863
0.0260412
0.0261582
0.0262355
0.0262754
0.0262823
0.0262566
0.0262024
0.0261235
0.0260222
0.025901
0.0257626
0.0256093
0.0254432
0.025266
0.0250794
0.0248846
0.0246827
0.0244748
0.0242616
0.0240439
0.0238223
0.0235975
0.02337
0.0231406
0.0229097
0.0226791
0.0224494
0.0222255
0.0220105
0.0218143
0.0216387
0.0215078
0.0214199
0.0214319
0.0216963
0.0221924
0.0229229
0.0238677
0.0250224
0.0263757
0.0278787
0.0294673
0.0310898
0.0326943
0.0342842
0.0359635
0.037842
0.0400608
0.0428203
0.0461244
0.0497729
0.0533533
0.0560671
0.056406
0.0536576
0.0496189
0.046574
0.0469491
0.0443904
0.0400424
0.0353626
0.0341797
0.0364571
0.0327476
0.0265534
0.0218796
0.0187874
0.0166866
0.0151818
0.0140968
0.0133516
0.0129121
0.0127653
0.0128864
0.0132431
0.0138123
0.0145742
0.0155105
0.016625
0.0179475
0.0195019
0.0211291
0.0225549
0.0237688
0.0247887
0.0256291
0.0263038
0.0268249
0.0272031
0.0274493
0.0275752
0.0275936
0.0275167
0.0273616
0.0271619
0.026986
0.0269266
0.0270052
0.0271527
0.0273074
0.0274381
0.0275333
0.0275908
0.0276123
0.0276017
0.0275594
0.0274896
0.0273957
0.0272799
0.0271449
0.026993
0.0268266
0.0266478
0.0264582
0.0262594
0.0260527
0.0258392
0.0256199
0.0253956
0.0251671
0.024935
0.0247
0.0244626
0.0242237
0.0239839
0.0237448
0.0235076
0.023277
0.023057
0.0228575
0.022682
0.0225551
0.0224781
0.0225062
0.0227884
0.0233118
0.024077
0.0250634
0.0262664
0.0276724
0.0292317
0.0308799
0.0325649
0.0342384
0.035909
0.0376815
0.0396703
0.0420183
0.0449149
0.0483487
0.0520957
0.0557102
0.0583944
0.0587259
0.0561013
0.0521996
0.0490453
0.0489443
0.0463613
0.0422666
0.0378393
0.0367964
0.0394602
0.0363655
0.0296477
0.0242315
0.020629
0.018196
0.0164628
0.0152134
0.0143459
0.0138163
0.0136068
0.013689
0.0140286
0.014601
0.0153841
0.0163576
0.0175238
0.0189105
0.0205372
0.0222327
0.0237195
0.0249887
0.0260562
0.0269374
0.0276467
0.0281972
0.0286007
0.0288691
0.0290148
0.0290513
0.0289916
0.0288537
0.0286712
0.0285075
0.0284435
0.028499
0.0286169
0.0287425
0.0288467
0.0289179
0.0289534
0.0289546
0.0289245
0.0288641
0.0287772
0.0286668
0.0285353
0.0283851
0.0282186
0.028038
0.0278454
0.0276424
0.0274305
0.0272111
0.0269852
0.0267539
0.0265179
0.0262779
0.0260347
0.025789
0.0255414
0.0252927
0.0250436
0.0247961
0.0245512
0.0243142
0.0240894
0.0238873
0.0237126
0.0235906
0.0235253
0.0235694
0.0238697
0.0244216
0.0252224
0.0262506
0.0275002
0.0289559
0.030567
0.0322694
0.0340111
0.0357478
0.0374931
0.0393528
0.0414445
0.0439123
0.0469322
0.0504757
0.0542932
0.0579074
0.0605231
0.0608099
0.0582702
0.054474
0.0512309
0.0507674
0.0481655
0.0442863
0.0400427
0.0389485
0.0419474
0.0398878
0.0330453
0.0268673
0.0226795
0.0198584
0.0178578
0.0164155
0.0154035
0.0147669
0.0144823
0.0145171
0.014834
0.0154064
0.0162092
0.0172198
0.0184383
0.0198908
0.0215919
0.0233575
0.0249074
0.0262337
0.0273505
0.0282738
0.0290188
0.0295995
0.0300291
0.0303202
0.0304862
0.030541
0.0304987
0.0303778
0.0302117
0.0300588
0.029989
0.0300206
0.0301074
0.030202
0.0302777
0.0303228
0.0303344
0.0303133
0.0302621
0.030182
0.0300764
0.0299481
0.0297995
0.0296329
0.0294507
0.0292549
0.0290476
0.0288303
0.0286045
0.0283716
0.0281326
0.0278885
0.0276402
0.0273883
0.0271335
0.0268767
0.0266184
0.0263597
0.0261012
0.0258451
0.0255927
0.0253494
0.0251202
0.0249159
0.0247427
0.0246262
0.0245732
0.0246331
0.0249514
0.0255325
0.0263701
0.0274403
0.0287358
0.030239
0.031899
0.0336518
0.035446
0.0372422
0.0390587
0.0410019
0.043192
0.0457723
0.0489031
0.0525364
0.056395
0.0599723
0.0624801
0.0626901
0.0602109
0.0565069
0.0532025
0.0524516
0.0498392
0.0461495
0.0420569
0.040782
0.0439262
0.04316
0.0366821
0.0298417
0.0249951
0.0217208
0.0194056
0.0177354
0.0165519
0.0157875
0.015412
0.0153881
0.0156748
0.0162423
0.0170622
0.0181089
0.0193804
0.0209002
0.0226774
0.0245151
0.02613
0.0275152
0.0286826
0.0296493
0.0304309
0.0310427
0.0314988
0.031813
0.0319995
0.0320726
0.0320473
0.031943
0.0317924
0.0316483
0.0315712
0.0315781
0.0316327
0.0316948
0.0317399
0.031757
0.0317427
0.0316976
0.0316236
0.0315222
0.0313964
0.0312489
0.031082
0.0308979
0.0306988
0.0304868
0.0302637
0.0300312
0.0297907
0.0295436
0.0292908
0.0290333
0.028772
0.0285076
0.0282408
0.0279725
0.0277032
0.0274341
0.0271661
0.0269013
0.0266414
0.026392
0.0261587
0.0259528
0.0257817
0.0256714
0.025631
0.0257063
0.0260423
0.0266531
0.0275284
0.0286413
0.0299823
0.0315316
0.033238
0.0350381
0.036882
0.0387352
0.0406206
0.042645
0.0449301
0.0476162
0.0508454
0.0545467
0.0584144
0.0619158
0.0642771
0.0643827
0.0619489
0.0583343
0.054998
0.0540131
0.0514007
0.0478827
0.0439289
0.0424053
0.0454545
0.0460358
0.040418
0.0331931
0.0276349
0.0238348
0.0211488
0.0192087
0.0178209
0.0169027
0.0164167
0.0163199
0.0165663
0.0171223
0.0179555
0.0190367
0.0203612
0.0219495
0.0238046
0.025716
0.0273976
0.0288431
0.0300625
0.0310736
0.0318927
0.0325361
0.033019
0.0333565
0.0335633
0.0336545
0.0336457
0.0335571
0.0334205
0.0332833
0.0331973
0.0331789
0.0332004
0.0332284
0.0332412
0.0332284
0.0331864
0.0331154
0.033017
0.0328927
0.0327452
0.0325771
0.0323905
0.0321877
0.0319706
0.0317413
0.0315015
0.031253
0.0309969
0.0307347
0.0304674
0.0301959
0.029921
0.0296436
0.0293643
0.0290841
0.0288035
0.0285239
0.0282461
0.0279726
0.0277053
0.0274499
0.0272129
0.0270058
0.0268374
0.0267339
0.0267061
0.0267965
0.02715
0.0277904
0.0287041
0.0298602
0.0312465
0.0328407
0.0345917
0.0364368
0.038328
0.0402363
0.0421891
0.044293
0.0466696
0.0494545
0.0527677
0.0565125
0.0603544
0.0637393
0.0659168
0.0658954
0.0634983
0.0599763
0.0566373
0.0554586
0.0528579
0.0494997
0.0456843
0.0438925
0.0466204
0.0484058
0.0440857
0.0368831
0.0306551
0.0262574
0.0231363
0.0208762
0.0192443
0.0181407
0.0175199
0.0173319
0.017525
0.0180608
0.0189019
0.0200148
0.0213917
0.0230496
0.0249843
0.0269703
0.0287199
0.0302269
0.0314992
0.0325554
0.0334125
0.0340879
0.0345978
0.0349584
0.0351851
0.0352938
0.0353008
0.0352269
0.0351025
0.0349698
0.0348734
0.0348289
0.0348166
0.0348092
0.0347881
0.0347436
0.034672
0.0345734
0.034449
0.0343002
0.0341295
0.0339394
0.0337319
0.033509
0.0332728
0.0330252
0.0327678
0.0325022
0.0322297
0.0319517
0.0316691
0.0313828
0.0310938
0.0308028
0.0305106
0.0302181
0.0299259
0.0296355
0.0293479
0.0290655
0.0287909
0.0285299
0.0282895
0.0280817
0.0279165
0.0278201
0.0278051
0.0279103
0.0282808
0.0289506
0.0299029
0.0311027
0.0325339
0.034172
0.0359656
0.0378536
0.0397903
0.0417522
0.0437711
0.0459525
0.0484169
0.0512916
0.0546719
0.0584325
0.0622105
0.0654372
0.0673964
0.0672299
0.064866
0.0614439
0.0581299
0.0567889
0.0542123
0.0510064
0.0473363
0.0452905
0.0475226
0.050217
0.0474955
0.0407878
0.0340981
0.0290493
0.0254231
0.0227851
0.020862
0.0195347
0.0187487
0.0184467
0.0185701
0.0190742
0.0199157
0.0210562
0.0224839
0.0242118
0.0262274
0.028288
0.0301062
0.0316751
0.0330009
0.0341026
0.0349979
0.0357052
0.0362419
0.0366252
0.0368713
0.0369966
0.0370182
0.0369576
0.0368433
0.0367128
0.0366044
0.0365333
0.0364865
0.0364427
0.0363862
0.0363082
0.0362054
0.0360774
0.0359253
0.0357504
0.0355552
0.0353416
0.0351118
0.0348677
0.0346112
0.0343441
0.0340681
0.0337845
0.0334948
0.0332001
0.0329015
0.0325999
0.0322961
0.031991
0.0316854
0.0313802
0.0310761
0.0307746
0.0304771
0.030186
0.0299041
0.0296376
0.0293942
0.0291863
0.0290247
0.0289359
0.0289336
0.0290531
0.0294403
0.030139
0.0311298
0.0323731
0.0338488
0.0355295
0.037364
0.0392928
0.041273
0.043287
0.0453704
0.0476271
0.0501739
0.0531274
0.0565544
0.0602991
0.0639725
0.0669993
0.0687093
0.0683851
0.0660546
0.062742
0.0594794
0.0580011
0.0554614
0.0524037
0.0488897
0.0466273
0.0482543
0.0514788
0.0504602
0.044743
0.0379229
0.0322679
0.0280705
0.0249905
0.0227213
0.0211242
0.0201359
0.0196914
0.0197239
0.0201814
0.0210135
0.0221755
0.0236512
0.0254485
0.0275454
0.0296795
0.0315658
0.0331962
0.0345751
0.035722
0.0366552
0.0373939
0.0379569
0.038362
0.0386265
0.0387671
0.0388023
0.0387533
0.0386468
0.038516
0.038394
0.0382959
0.0382141
0.038133
0.0380397
0.0379268
0.0377911
0.0376322
0.0374508
0.0372483
0.0370269
0.0367885
0.0365352
0.0362686
0.0359907
0.035703
0.0354073
0.0351048
0.034797
0.0344849
0.0341695
0.0338519
0.0335328
0.0332131
0.0328936
0.0325753
0.0322591
0.0319464
0.0316388
0.031339
0.03105
0.0307784
0.0305324
0.0303248
0.0301674
0.0300864
0.0300966
0.0302302
0.0306337
0.0313602
0.0323888
0.033675
0.0351942
0.036916
0.0387894
0.0407567
0.0427785
0.0448428
0.0469886
0.0493168
0.0519389
0.054957
0.0584064
0.0620997
0.0656253
0.0684117
0.0698466
0.0693575
0.0670637
0.0638716
0.060685
0.0590894
0.0565996
0.0536887
0.0503442
0.0479165
0.0488944
0.0522571
0.0528281
0.0485354
0.0420095
0.0359376
0.0311414
0.0275543
0.0248777
0.0229571
0.0217215
0.021099
0.0210138
0.0214055
0.0222148
0.0233899
0.0249088
0.0267735
0.0289497
0.0311556
0.033108
0.0347981
0.0362287
0.0374195
0.0383895
0.0391585
0.0397465
0.0401723
0.0404535
0.0406082
0.0406554
0.040616
0.0405149
0.0403814
0.0402443
0.0401187
0.0400018
0.0398827
0.0397517
0.0396024
0.0394323
0.0392409
0.0390289
0.0387972
0.0385483
0.0382838
0.0380056
0.0377154
0.0374149
0.0371057
0.0367893
0.0364671
0.0361402
0.03581
0.0354772
0.0351429
0.0348079
0.0344732
0.0341394
0.0338078
0.0334792
0.0331552
0.0328375
0.0325291
0.0322333
0.0319569
0.0317087
0.0315019
0.0313491
0.0312762
0.0312986
0.031446
0.0318654
0.0326185
0.0336835
0.0350113
0.0365724
0.0383333
0.040243
0.0422462
0.0443071
0.0464194
0.0486243
0.0510187
0.0537062
0.0567709
0.060214
0.0638166
0.0671502
0.0696582
0.070798
0.0701424
0.067891
0.0648309
0.061743
0.0600462
0.0576191
0.0548557
0.051695
0.0491618
0.049503
0.0526574
0.0545127
0.0519268
0.0461846
0.0399848
0.0346884
0.0305434
0.0273954
0.0250905
0.0235543
0.0227102
0.0224737
0.0227747
0.0235437
0.0247199
0.0262745
0.0282027
0.0304542
0.0327278
0.0347421
0.0364881
0.0379674
0.0391995
0.040204
0.0410014
0.0416125
0.0420569
0.042353
0.0425201
0.0425776
0.0425457
0.0424474
0.0423088
0.0421553
0.042002
0.0418499
0.0416926
0.041523
0.0413365
0.0411307
0.0409055
0.0406614
0.0403994
0.0401216
0.0398298
0.0395256
0.0392106
0.0388865
0.0385548
0.0382169
0.037874
0.0375275
0.0371783
0.0368275
0.036476
0.0361247
0.0357745
0.0354262
0.0350809
0.0347398
0.0344045
0.0340769
0.03376
0.0334577
0.033177
0.0329272
0.0327216
0.0325739
0.0325091
0.0325435
0.0327045
0.0331392
0.0339172
0.0350165
0.0363839
0.0379844
0.0397816
0.0417245
0.0437603
0.0458572
0.0480139
0.0502732
0.052726
0.0554656
0.0585545
0.0619581
0.0654277
0.0685252
0.0707211
0.0715528
0.0707344
0.068533
0.0656162
0.0626476
0.0608621
0.0585107
0.0558971
0.052934
0.0503591
0.0501202
0.0528034
0.0555106
0.0546933
0.0502063
0.0442828
0.0386773
0.0340183
0.0303446
0.0275912
0.0256931
0.0245753
0.0241455
0.0243241
0.0250295
0.0261904
0.0277696
0.0297551
0.0320744
0.0344081
0.0364772
0.0382727
0.0397955
0.0410644
0.0420999
0.0429224
0.0435535
0.0440135
0.0443226
0.0445004
0.0445662
0.0445393
0.0444412
0.0442954
0.0441245
0.0439435
0.0437565
0.043561
0.0433525
0.0431279
0.0428856
0.0426255
0.0423483
0.0420548
0.0417472
0.041427
0.0410958
0.0407551
0.0404066
0.0400515
0.0396913
0.0393271
0.0389602
0.0385917
0.0382224
0.0378533
0.0374853
0.0371193
0.0367563
0.0363973
0.0360437
0.0356971
0.0353597
0.0350348
0.0347264
0.0344418
0.034191
0.0339873
0.0338449
0.0337885
0.0338346
0.0340087
0.0344581
0.0352591
0.03639
0.0377936
0.0394302
0.0412599
0.0432319
0.0452961
0.0474248
0.0496208
0.0519274
0.054428
0.0572022
0.0602884
0.063615
0.066907
0.069726
0.0715818
0.0720999
0.0711277
0.068985
0.0662222
0.0633912
0.0615268
0.0592637
0.0568034
0.0540504
0.0514976
0.0507671
0.0528166
0.0559
0.0566719
0.0537901
0.0486205
0.0430103
0.0379708
0.033792
0.0305337
0.0282076
0.0267553
0.0260811
0.0260971
0.0267087
0.0278318
0.0294194
0.0314513
0.0338272
0.0362091
0.038322
0.0401568
0.0417151
0.0430138
0.0440749
0.0449168
0.0455635
0.0460366
0.0463565
0.0465427
0.0466143
0.04659
0.0464898
0.0463348
0.0461456
0.0459371
0.0457159
0.0454827
0.0452355
0.0449726
0.0446933
0.0443978
0.0440867
0.0437611
0.0434228
0.0430735
0.0427146
0.0423476
0.0419739
0.0415949
0.0412119
0.040826
0.0404383
0.04005
0.0396619
0.0392749
0.0388901
0.0385083
0.0381305
0.037758
0.037392
0.0370345
0.0366877
0.0363552
0.0360413
0.0357537
0.0355024
0.0353012
0.0351646
0.0351165
0.0351739
0.035361
0.0358244
0.0366458
0.0378046
0.0392402
0.0409082
0.0427654
0.0447612
0.0468483
0.0490028
0.0512311
0.0535752
0.0561091
0.0588962
0.0619475
0.0651558
0.0682249
0.0707265
0.0722219
0.0724289
0.0713166
0.0692417
0.0666426
0.0639654
0.0620292
0.0598663
0.0575639
0.0550315
0.052561
0.0514477
0.0527997
0.0558226
0.0577993
0.0566584
0.0527064
0.0475073
0.0423233
0.0377398
0.0339898
0.0311753
0.0293225
0.0283435
0.0281472
0.0286258
0.0296813
0.0312543
0.033315
0.0357319
0.0381436
0.0402839
0.0421432
0.0437252
0.0450436
0.0461198
0.0469754
0.0476336
0.0481162
0.0484437
0.0486355
0.0487102
0.0486859
0.0485813
0.0484156
0.0482077
0.0479724
0.0477183
0.0474484
0.0471633
0.0468625
0.0465464
0.0462154
0.0458704
0.0455123
0.0451431
0.0447643
0.0443775
0.0439838
0.0435848
0.0431816
0.0427756
0.0423677
0.0419592
0.041551
0.0411441
0.0407394
0.0403379
0.0399404
0.0395482
0.0391624
0.0387845
0.0384166
0.0380611
0.0377217
0.0374032
0.0371132
0.0368624
0.0366643
0.036534
0.0364943
0.0365627
0.0367624
0.0372388
0.0380778
0.0392598
0.0407217
0.0424148
0.0442931
0.0463059
0.0484087
0.0505812
0.052832
0.0552002
0.0577487
0.0605216
0.0635014
0.0665473
0.0693494
0.0715006
0.0726236
0.0725302
0.0712953
0.0692975
0.0668704
0.0643605
0.0623573
0.0603063
0.0581668
0.0558631
0.0535288
0.0521506
0.0528263
0.055452
0.0581297
0.0586026
0.0562058
0.0518873
0.0469149
0.0421233
0.0379613
0.0346708
0.0323574
0.0310066
0.0305385
0.0308351
0.0317838
0.0333107
0.0353749
0.0378087
0.0402236
0.0423685
0.044231
0.0458165
0.0471406
0.0482228
0.0490846
0.0497485
0.0502358
0.0505668
0.0507607
0.0508356
0.0508089
0.0506979
0.0505206
0.0502941
0.0500333
0.0497479
0.0494433
0.0491217
0.0487844
0.0484323
0.0480666
0.0476881
0.047298
0.0468983
0.0464904
0.0460758
0.0456558
0.0452317
0.0448046
0.0443758
0.0439464
0.0435173
0.0430897
0.0426644
0.0422423
0.0418246
0.0414121
0.041006
0.0406076
0.0402186
0.0398411
0.0394778
0.0391326
0.0388105
0.0385194
0.0382699
0.0380759
0.0379522
0.0379212
0.0380001
0.0382121
0.0387004
0.0395534
0.0407529
0.0422341
0.0439445
0.0458354
0.0478565
0.0499657
0.0521455
0.0544056
0.0567808
0.0593201
0.0620469
0.0649145
0.0677529
0.0702469
0.0720223
0.072771
0.0723953
0.0710585
0.0691469
0.066898
0.0645667
0.0624992
0.0605708
0.0585994
0.05653
0.0543774
0.0528516
0.0529365
0.0549588
0.0578227
0.0595406
0.0588066
0.0557902
0.0514715
0.0467884
0.0423923
0.0386949
0.0359235
0.0341508
0.0333447
0.0333999
0.034192
0.035631
0.0376629
0.0400788
0.0424582
0.0445685
0.0464075
0.0479768
0.0492903
0.0503658
0.0512236
0.0518849
0.0523706
0.0527001
0.0528922
0.0529641
0.0529326
0.0528138
0.0526243
0.0523802
0.0520958
0.0517819
0.0514452
0.0510898
0.0507182
0.0503321
0.0499333
0.0495229
0.0491022
0.0486731
0.0482373
0.047796
0.0473506
0.0469023
0.0464523
0.0460017
0.0455516
0.0451029
0.0446568
0.044214
0.0437757
0.0433427
0.0429162
0.0424974
0.0420876
0.0416887
0.041303
0.0409332
0.0405836
0.0402593
0.0399685
0.0397217
0.0395326
0.0394163
0.039394
0.0394833
0.0397071
0.0402058
0.0410688
0.0422791
0.0437708
0.0454886
0.0473816
0.0493997
0.0515033
0.0536767
0.0559292
0.0582893
0.0607909
0.0634349
0.0661466
0.068733
0.0708838
0.0722677
0.0726499
0.072017
0.070601
0.0687845
0.0667179
0.0645736
0.0624429
0.0606468
0.0588486
0.0570167
0.0550813
0.0535169
0.0531374
0.0544812
0.0571027
0.0595461
0.0603016
0.0588381
0.055616
0.0514567
0.0471223
0.0431863
0.0400225
0.0378232
0.0366356
0.0363886
0.0369644
0.0382622
0.0402068
0.0425438
0.04484
0.0468784
0.0486611
0.0501878
0.0514692
0.0525209
0.0533612
0.0540095
0.0544854
0.0548074
0.0549931
0.0550589
0.0550204
0.054893
0.0546918
0.0544317
0.0541267
0.0537878
0.053423
0.0530376
0.0526353
0.0522185
0.0517896
0.05135
0.0509011
0.0504452
0.0499835
0.0495177
0.0490489
0.0485784
0.0481073
0.0476367
0.0471676
0.0467011
0.0462381
0.0457797
0.0453267
0.0448802
0.0444414
0.0440116
0.0435923
0.0431853
0.0427932
0.0424189
0.0420667
0.0417422
0.0414534
0.0412108
0.0410279
0.0409198
0.0409066
0.0410062
0.0412414
0.0417487
0.0426169
0.0438298
0.0453215
0.0470347
0.0489169
0.0509181
0.0530007
0.0551501
0.0573736
0.0596918
0.0621222
0.0646428
0.067154
0.0694475
0.071228
0.0722154
0.0722492
0.0713896
0.0699183
0.0682047
0.0663226
0.0643712
0.0621766
0.0605214
0.0589009
0.0573074
0.0556148
0.0541059
0.0534068
0.0541072
0.0562049
0.0588323
0.060658
0.0607299
0.0589248
0.0557298
0.0518545
0.047965
0.0445737
0.0420119
0.0404373
0.0398449
0.0401443
0.0412356
0.0430197
0.0452101
0.0473647
0.0492834
0.0509691
0.0524195
0.0536416
0.0546478
0.0554535
0.0560759
0.0565321
0.0568393
0.0570136
0.0570701
0.0570233
0.0568871
0.0566755
0.0564024
0.0560809
0.055722
0.0553345
0.0549245
0.0544965
0.0540539
0.0535995
0.053135
0.052662
0.0521829
0.0516991
0.0512122
0.0507233
0.0502337
0.0497445
0.0492568
0.0487717
0.0482901
0.047813
0.0473415
0.0468765
0.0464192
0.0459707
0.0455325
0.0451061
0.0446937
0.0442977
0.0439214
0.0435693
0.043247
0.0429625
0.0427261
0.042551
0.0424521
0.0424486
0.0425584
0.0428046
0.0433185
0.0441865
0.0453925
0.0468717
0.0485659
0.0504214
0.0523887
0.0544314
0.056535
0.0587034
0.0609481
0.0632696
0.065624
0.0678913
0.0698568
0.0712501
0.0718479
0.0715606
0.0705091
0.0690065
0.0674023
0.0657047
0.0639496
0.0616891
0.0601821
0.0587429
0.0573865
0.0559526
0.0545751
0.0537005
0.0538688
0.0553233
0.0576929
0.0600395
0.061341
0.0610295
0.0591445
0.0561585
0.0527005
0.0493616
0.0466004
0.0447024
0.0437599
0.0437382
0.0445568
0.0460993
0.048064
0.0500086
0.0517505
0.0532905
0.0546245
0.0557546
0.0566893
0.0574402
0.058021
0.0584463
0.0587307
0.0588883
0.0589327
0.0588767
0.0587328
0.0585136
0.0582317
0.0578993
0.057527
0.0571238
0.0566964
0.0562499
0.0557884
0.0553149
0.0548317
0.0543406
0.0538439
0.0533434
0.0528404
0.0523363
0.0518323
0.0513296
0.0508292
0.0503322
0.0498396
0.0493525
0.0488718
0.0483986
0.0479341
0.0474796
0.0470366
0.0466068
0.0461924
0.045796
0.0454211
0.0450723
0.0447553
0.044478
0.0442505
0.0440853
0.043997
0.0440042
0.0441244
0.0443812
0.0448992
0.0457608
0.0469488
0.0484012
0.0500595
0.0518695
0.0537822
0.0557621
0.0577938
0.0598766
0.0620121
0.0641839
0.0663291
0.0683133
0.0699246
0.0709257
0.0711523
0.0705791
0.0693728
0.0678623
0.0663726
0.0648577
0.0632998
0.0609703
0.0596171
0.0583616
0.0572389
0.0560709
0.054881
0.05396
0.0537472
0.0545786
0.0564201
0.0587613
0.0607829
0.061741
0.0612845
0.0595312
0.0569189
0.0540056
0.051319
0.0492584
0.0480299
0.047682
0.0481748
0.0493994
0.0510542
0.0527144
0.0542168
0.0555578
0.0567309
0.0577325
0.0585667
0.05924
0.0597622
0.0601442
0.0603974
0.0605334
0.0605634
0.0604985
0.0603493
0.0601269
0.0598423
0.0595064
0.0591293
0.0587195
0.0582841
0.0578285
0.0573571
0.0568735
0.0563801
0.055879
0.0553726
0.0548627
0.0543509
0.0538385
0.0533267
0.0528168
0.0523099
0.051807
0.0513091
0.0508174
0.050333
0.0498569
0.0493904
0.0489348
0.0484919
0.0480634
0.0476516
0.0472594
0.0468903
0.046549
0.0462414
0.045975
0.0457594
0.0456067
0.0455311
0.0455503
0.0456816
0.0459487
0.046468
0.0473166
0.0484738
0.0498828
0.0514858
0.0532285
0.0550623
0.0569527
0.0588823
0.0608449
0.0628325
0.0648132
0.0667088
0.0683775
0.0696193
0.0702362
0.0701211
0.069303
0.0679802
0.0664834
0.0651118
0.0637761
0.0624138
0.060011
0.0588154
0.0577443
0.0568501
0.0559479
0.054983
0.0541208